 TITLE = "Time curves in points"
 VARIABLES = "TIME "  "TEMPERATURE1" 
 ZONE T="POINT=POINTPNT_WARM_0"
0.000000000000e+00 3.353900000000e+02 
8.640000000000e+04 3.352600000000e+02 
