# vtk DataFile Version 3.0
Unstructured Grid from OpenGeoSys
ASCII
DATASET UNSTRUCTURED_GRID
FIELD TimesAndCycles 2
TIME 1 1 double
3.600000000000e+03
CYLCE 1 1 long
1
POINTS 1394 double
0.000000000000e+00 0.000000000000e+00 0.000000000000e+00
5.000000000000e+00 0.000000000000e+00 0.000000000000e+00
5.000000000000e+00 5.000000000000e+00 0.000000000000e+00
0.000000000000e+00 5.000000000000e+00 0.000000000000e+00
2.244234909000e+00 2.244234909000e+00 0.000000000000e+00
2.755765091000e+00 2.244234909000e+00 0.000000000000e+00
2.755765091000e+00 2.755765091000e+00 0.000000000000e+00
2.244234909000e+00 2.755765091000e+00 0.000000000000e+00
7.141316008320e-01 7.141316008320e-01 0.000000000000e+00
1.314642334730e+00 1.314642334730e+00 0.000000000000e+00
1.819609643610e+00 1.819609643610e+00 0.000000000000e+00
1.819609643610e+00 3.180390356390e+00 0.000000000000e+00
1.314642334740e+00 3.685357665260e+00 0.000000000000e+00
7.141316008360e-01 4.285868399160e+00 0.000000000000e+00
0.000000000000e+00 3.750000000000e+00 0.000000000000e+00
0.000000000000e+00 2.500000000000e+00 0.000000000000e+00
0.000000000000e+00 1.250000000000e+00 0.000000000000e+00
4.285868399170e+00 7.141316008320e-01 0.000000000000e+00
3.685357665270e+00 1.314642334730e+00 0.000000000000e+00
3.180390356390e+00 1.819609643610e+00 0.000000000000e+00
1.250000000000e+00 0.000000000000e+00 0.000000000000e+00
2.500000000000e+00 0.000000000000e+00 0.000000000000e+00
3.750000000000e+00 0.000000000000e+00 0.000000000000e+00
4.285868399170e+00 4.285868399170e+00 0.000000000000e+00
3.685357665270e+00 3.685357665270e+00 0.000000000000e+00
3.180390356390e+00 3.180390356390e+00 0.000000000000e+00
5.000000000000e+00 1.250000000000e+00 0.000000000000e+00
5.000000000000e+00 2.500000000000e+00 0.000000000000e+00
5.000000000000e+00 3.750000000000e+00 0.000000000000e+00
3.750000000000e+00 5.000000000000e+00 0.000000000000e+00
2.500000000000e+00 5.000000000000e+00 0.000000000000e+00
1.250000000000e+00 5.000000000000e+00 0.000000000000e+00
9.560744151940e-01 2.677827143250e+00 0.000000000000e+00
6.659597640160e-01 1.438876720610e+00 0.000000000000e+00
2.309219871940e+00 9.522638293400e-01 0.000000000000e+00
3.458157207860e+00 6.354750772000e-01 0.000000000000e+00
4.043925584810e+00 2.322172856750e+00 0.000000000000e+00
4.334040235980e+00 3.561123279390e+00 0.000000000000e+00
2.318530875810e+00 4.048536535600e+00 0.000000000000e+00
3.552396921680e+00 4.370927842320e+00 0.000000000000e+00
2.500000000000e+00 2.500000000000e+00 0.000000000000e+00
0.000000000000e+00 0.000000000000e+00 -5.000000000000e-01
5.000000000000e+00 0.000000000000e+00 -5.000000000000e-01
5.000000000000e+00 5.000000000000e+00 -5.000000000000e-01
0.000000000000e+00 5.000000000000e+00 -5.000000000000e-01
2.244234909000e+00 2.244234909000e+00 -5.000000000000e-01
2.755765091000e+00 2.244234909000e+00 -5.000000000000e-01
2.755765091000e+00 2.755765091000e+00 -5.000000000000e-01
2.244234909000e+00 2.755765091000e+00 -5.000000000000e-01
7.141316008320e-01 7.141316008320e-01 -5.000000000000e-01
1.314642334730e+00 1.314642334730e+00 -5.000000000000e-01
1.819609643610e+00 1.819609643610e+00 -5.000000000000e-01
1.819609643610e+00 3.180390356390e+00 -5.000000000000e-01
1.314642334740e+00 3.685357665260e+00 -5.000000000000e-01
7.141316008360e-01 4.285868399160e+00 -5.000000000000e-01
0.000000000000e+00 3.750000000000e+00 -5.000000000000e-01
0.000000000000e+00 2.500000000000e+00 -5.000000000000e-01
0.000000000000e+00 1.250000000000e+00 -5.000000000000e-01
4.285868399170e+00 7.141316008320e-01 -5.000000000000e-01
3.685357665270e+00 1.314642334730e+00 -5.000000000000e-01
3.180390356390e+00 1.819609643610e+00 -5.000000000000e-01
1.250000000000e+00 0.000000000000e+00 -5.000000000000e-01
2.500000000000e+00 0.000000000000e+00 -5.000000000000e-01
3.750000000000e+00 0.000000000000e+00 -5.000000000000e-01
4.285868399170e+00 4.285868399170e+00 -5.000000000000e-01
3.685357665270e+00 3.685357665270e+00 -5.000000000000e-01
3.180390356390e+00 3.180390356390e+00 -5.000000000000e-01
5.000000000000e+00 1.250000000000e+00 -5.000000000000e-01
5.000000000000e+00 2.500000000000e+00 -5.000000000000e-01
5.000000000000e+00 3.750000000000e+00 -5.000000000000e-01
3.750000000000e+00 5.000000000000e+00 -5.000000000000e-01
2.500000000000e+00 5.000000000000e+00 -5.000000000000e-01
1.250000000000e+00 5.000000000000e+00 -5.000000000000e-01
9.560744151940e-01 2.677827143250e+00 -5.000000000000e-01
6.659597640160e-01 1.438876720610e+00 -5.000000000000e-01
2.309219871940e+00 9.522638293400e-01 -5.000000000000e-01
3.458157207860e+00 6.354750772000e-01 -5.000000000000e-01
4.043925584810e+00 2.322172856750e+00 -5.000000000000e-01
4.334040235980e+00 3.561123279390e+00 -5.000000000000e-01
2.318530875810e+00 4.048536535600e+00 -5.000000000000e-01
3.552396921680e+00 4.370927842320e+00 -5.000000000000e-01
2.500000000000e+00 2.500000000000e+00 -5.000000000000e-01
0.000000000000e+00 0.000000000000e+00 -1.000000000000e+00
5.000000000000e+00 0.000000000000e+00 -1.000000000000e+00
5.000000000000e+00 5.000000000000e+00 -1.000000000000e+00
0.000000000000e+00 5.000000000000e+00 -1.000000000000e+00
2.244234909000e+00 2.244234909000e+00 -1.000000000000e+00
2.755765091000e+00 2.244234909000e+00 -1.000000000000e+00
2.755765091000e+00 2.755765091000e+00 -1.000000000000e+00
2.244234909000e+00 2.755765091000e+00 -1.000000000000e+00
7.141316008320e-01 7.141316008320e-01 -1.000000000000e+00
1.314642334730e+00 1.314642334730e+00 -1.000000000000e+00
1.819609643610e+00 1.819609643610e+00 -1.000000000000e+00
1.819609643610e+00 3.180390356390e+00 -1.000000000000e+00
1.314642334740e+00 3.685357665260e+00 -1.000000000000e+00
7.141316008360e-01 4.285868399160e+00 -1.000000000000e+00
0.000000000000e+00 3.750000000000e+00 -1.000000000000e+00
0.000000000000e+00 2.500000000000e+00 -1.000000000000e+00
0.000000000000e+00 1.250000000000e+00 -1.000000000000e+00
4.285868399170e+00 7.141316008320e-01 -1.000000000000e+00
3.685357665270e+00 1.314642334730e+00 -1.000000000000e+00
3.180390356390e+00 1.819609643610e+00 -1.000000000000e+00
1.250000000000e+00 0.000000000000e+00 -1.000000000000e+00
2.500000000000e+00 0.000000000000e+00 -1.000000000000e+00
3.750000000000e+00 0.000000000000e+00 -1.000000000000e+00
4.285868399170e+00 4.285868399170e+00 -1.000000000000e+00
3.685357665270e+00 3.685357665270e+00 -1.000000000000e+00
3.180390356390e+00 3.180390356390e+00 -1.000000000000e+00
5.000000000000e+00 1.250000000000e+00 -1.000000000000e+00
5.000000000000e+00 2.500000000000e+00 -1.000000000000e+00
5.000000000000e+00 3.750000000000e+00 -1.000000000000e+00
3.750000000000e+00 5.000000000000e+00 -1.000000000000e+00
2.500000000000e+00 5.000000000000e+00 -1.000000000000e+00
1.250000000000e+00 5.000000000000e+00 -1.000000000000e+00
9.560744151940e-01 2.677827143250e+00 -1.000000000000e+00
6.659597640160e-01 1.438876720610e+00 -1.000000000000e+00
2.309219871940e+00 9.522638293400e-01 -1.000000000000e+00
3.458157207860e+00 6.354750772000e-01 -1.000000000000e+00
4.043925584810e+00 2.322172856750e+00 -1.000000000000e+00
4.334040235980e+00 3.561123279390e+00 -1.000000000000e+00
2.318530875810e+00 4.048536535600e+00 -1.000000000000e+00
3.552396921680e+00 4.370927842320e+00 -1.000000000000e+00
2.500000000000e+00 2.500000000000e+00 -1.000000000000e+00
0.000000000000e+00 0.000000000000e+00 -3.000000000000e+00
5.000000000000e+00 0.000000000000e+00 -3.000000000000e+00
5.000000000000e+00 5.000000000000e+00 -3.000000000000e+00
0.000000000000e+00 5.000000000000e+00 -3.000000000000e+00
2.244234909000e+00 2.244234909000e+00 -3.000000000000e+00
2.755765091000e+00 2.244234909000e+00 -3.000000000000e+00
2.755765091000e+00 2.755765091000e+00 -3.000000000000e+00
2.244234909000e+00 2.755765091000e+00 -3.000000000000e+00
7.141316008320e-01 7.141316008320e-01 -3.000000000000e+00
1.314642334730e+00 1.314642334730e+00 -3.000000000000e+00
1.819609643610e+00 1.819609643610e+00 -3.000000000000e+00
1.819609643610e+00 3.180390356390e+00 -3.000000000000e+00
1.314642334740e+00 3.685357665260e+00 -3.000000000000e+00
7.141316008360e-01 4.285868399160e+00 -3.000000000000e+00
0.000000000000e+00 3.750000000000e+00 -3.000000000000e+00
0.000000000000e+00 2.500000000000e+00 -3.000000000000e+00
0.000000000000e+00 1.250000000000e+00 -3.000000000000e+00
4.285868399170e+00 7.141316008320e-01 -3.000000000000e+00
3.685357665270e+00 1.314642334730e+00 -3.000000000000e+00
3.180390356390e+00 1.819609643610e+00 -3.000000000000e+00
1.250000000000e+00 0.000000000000e+00 -3.000000000000e+00
2.500000000000e+00 0.000000000000e+00 -3.000000000000e+00
3.750000000000e+00 0.000000000000e+00 -3.000000000000e+00
4.285868399170e+00 4.285868399170e+00 -3.000000000000e+00
3.685357665270e+00 3.685357665270e+00 -3.000000000000e+00
3.180390356390e+00 3.180390356390e+00 -3.000000000000e+00
5.000000000000e+00 1.250000000000e+00 -3.000000000000e+00
5.000000000000e+00 2.500000000000e+00 -3.000000000000e+00
5.000000000000e+00 3.750000000000e+00 -3.000000000000e+00
3.750000000000e+00 5.000000000000e+00 -3.000000000000e+00
2.500000000000e+00 5.000000000000e+00 -3.000000000000e+00
1.250000000000e+00 5.000000000000e+00 -3.000000000000e+00
9.560744151940e-01 2.677827143250e+00 -3.000000000000e+00
6.659597640160e-01 1.438876720610e+00 -3.000000000000e+00
2.309219871940e+00 9.522638293400e-01 -3.000000000000e+00
3.458157207860e+00 6.354750772000e-01 -3.000000000000e+00
4.043925584810e+00 2.322172856750e+00 -3.000000000000e+00
4.334040235980e+00 3.561123279390e+00 -3.000000000000e+00
2.318530875810e+00 4.048536535600e+00 -3.000000000000e+00
3.552396921680e+00 4.370927842320e+00 -3.000000000000e+00
2.500000000000e+00 2.500000000000e+00 -3.000000000000e+00
0.000000000000e+00 0.000000000000e+00 -5.000000000000e+00
5.000000000000e+00 0.000000000000e+00 -5.000000000000e+00
5.000000000000e+00 5.000000000000e+00 -5.000000000000e+00
0.000000000000e+00 5.000000000000e+00 -5.000000000000e+00
2.244234909000e+00 2.244234909000e+00 -5.000000000000e+00
[...]
POINT_DATA 1394
SCALARS TEMPERATURE1 double 1
LOOKUP_TABLE default
1.000000000000e+01
1.000000000000e+01
1.000000000000e+01
1.000000000000e+01
1.000000000000e+01
1.000000000000e+01
1.000000000000e+01
1.000000000000e+01
1.000000000000e+01
1.000000000000e+01
1.000000000000e+01
1.000000000000e+01
1.000000000000e+01
1.000000000000e+01
1.000000000000e+01
1.000000000000e+01
1.000000000000e+01
1.000000000000e+01
1.000000000000e+01
1.000000000000e+01
1.000000000000e+01
1.000000000000e+01
1.000000000000e+01
1.000000000000e+01
1.000000000000e+01
1.000000000000e+01
1.000000000000e+01
1.000000000000e+01
1.000000000000e+01
1.000000000000e+01
1.000000000000e+01
1.000000000000e+01
1.000000000000e+01
1.000000000000e+01
1.000000000000e+01
1.000000000000e+01
1.000000000000e+01
1.000000000000e+01
1.000000000000e+01
1.000000000000e+01
1.000000000000e+01
2.205295406911e+01
2.205306576621e+01
2.205545896604e+01
2.205020475100e+01
2.148648914589e+01
2.148496033676e+01
2.146039309909e+01
2.152855289836e+01
2.206670699208e+01
2.206535343568e+01
2.185131814571e+01
2.184399966170e+01
2.207201967559e+01
2.206605409370e+01
2.206608563360e+01
2.208630495642e+01
2.206662983537e+01
2.206676294806e+01
2.206654363544e+01
2.185724120108e+01
2.206703936724e+01
2.208593920100e+01
2.206646087024e+01
2.206817415299e+01
2.206049570509e+01
2.186867903954e+01
2.206702645040e+01
2.208618592523e+01
2.206714589161e+01
2.206709968887e+01
2.208636447197e+01
2.206617579278e+01
2.211346441397e+01
2.207946842869e+01
2.211257438103e+01
2.208113930832e+01
2.211138816719e+01
2.207909612371e+01
2.211254247123e+01
2.207890338141e+01
2.252163311676e+01
2.935356739474e+01
2.935257274251e+01
2.936017614769e+01
2.934992098895e+01
2.471375092198e+01
2.474153267758e+01
2.478935879174e+01
2.466489775927e+01
2.932938736827e+01
2.891562009456e+01
2.757754622123e+01
2.755730898842e+01
2.895006235352e+01
2.933213465631e+01
2.939651563812e+01
2.936516792269e+01
2.934662485917e+01
2.932761556627e+01
2.892020627683e+01
2.759372601653e+01
2.939543178482e+01
2.936393600394e+01
2.934924265213e+01
2.933505228083e+01
2.888615163811e+01
2.761120616220e+01
2.939559755710e+01
2.936552410512e+01
2.934493857065e+01
2.934604489176e+01
2.936441949209e+01
2.939590118302e+01
2.909456913062e+01
2.927589812232e+01
2.909630637502e+01
2.928304101026e+01
2.909851862869e+01
2.926827977113e+01
2.910184740858e+01
2.927956178695e+01
1.748313017729e+01
3.020325656286e+01
3.020182769529e+01
3.020710955410e+01
3.020296980572e+01
2.617958014237e+01
2.619527047558e+01
2.621860015860e+01
2.615655685736e+01
3.015743831375e+01
2.970079925097e+01
2.845432771180e+01
2.843267014656e+01
2.973197623399e+01
3.016079667777e+01
3.023072101076e+01
3.017106335767e+01
3.017615655693e+01
3.015563205354e+01
2.970481729510e+01
2.846618126742e+01
3.022852753850e+01
3.017012359170e+01
3.017929138435e+01
3.016253882163e+01
2.967344147130e+01
2.848550727455e+01
3.022910395269e+01
3.017182796389e+01
3.017370998034e+01
3.017491013191e+01
3.017034917000e+01
3.023034138815e+01
2.984561172953e+01
3.008231384794e+01
2.984789406028e+01
3.008819247438e+01
2.985028286035e+01
3.007454984939e+01
2.985337167170e+01
3.008713657465e+01
2.089564449738e+01
3.003966620704e+01
3.003864903967e+01
3.004214897880e+01
3.003890093093e+01
2.740527049062e+01
2.741726277690e+01
2.743621800095e+01
2.738630539872e+01
3.002380193023e+01
2.975165841633e+01
2.894943207176e+01
2.893611564149e+01
2.977173169822e+01
3.002605251927e+01
3.007169621864e+01
3.004933742895e+01
3.003803859637e+01
3.002253479559e+01
2.975436210188e+01
2.895775764226e+01
3.007041098874e+01
3.004876429871e+01
3.003979445663e+01
3.002665125850e+01
2.973439327308e+01
2.896969354580e+01
3.007061649041e+01
3.004987888464e+01
3.003647252894e+01
3.003719787456e+01
3.004888209290e+01
3.007142562179e+01
2.985481474221e+01
2.998722080329e+01
2.985613896468e+01
2.999187079595e+01
2.985786420403e+01
2.998238045768e+01
2.985970659004e+01
2.998996103315e+01
2.371732030086e+01
3.006080726034e+01
3.006012575040e+01
3.006219266580e+01
3.005969599869e+01
2.857150951056e+01
2.857983872166e+01
2.859353972949e+01
2.855788381446e+01
3.006818407038e+01
2.994235156357e+01
2.949971151878e+01
2.949290912831e+01
2.995342407980e+01
3.006958952521e+01
3.009587043861e+01
3.010228706655e+01
3.007875112784e+01
3.006735242606e+01
2.994398184189e+01
2.950503606732e+01
3.009529386792e+01
3.010201827162e+01
3.007941779629e+01
3.006918710233e+01
2.993324529827e+01
2.951129661822e+01
3.009521436714e+01
3.010265631317e+01
3.007787798989e+01
3.007823373189e+01
3.010204007257e+01
3.009568842241e+01
3.001082026131e+01
3.006167174196e+01
3.001139221084e+01
3.006527783113e+01
3.001258246517e+01
3.005916320050e+01
3.001342012828e+01
3.006277810370e+01
2.629772214776e+01
3.006039020799e+01
3.005990932152e+01
3.006065931757e+01
3.005949051283e+01
2.960743429836e+01
2.960890272923e+01
2.961009509597e+01
2.960695710667e+01
3.008071612351e+01
3.005359458328e+01
2.990058100977e+01
2.989785170105e+01
3.005723726633e+01
3.008177605480e+01
3.009475040571e+01
3.011632743281e+01
3.008849453776e+01
3.008019513731e+01
3.005431233719e+01
2.990249057668e+01
3.009449686809e+01
3.011633477835e+01
3.008846143459e+01
3.008003748667e+01
3.005111994944e+01
2.990560824313e+01
3.009427378748e+01
3.011660732749e+01
3.008801428632e+01
3.008813339208e+01
3.011622277941e+01
3.009465730082e+01
3.008845980915e+01
3.009181707578e+01
3.008861665321e+01
3.009435938639e+01
3.008948003273e+01
3.009097276824e+01
3.008948208921e+01
3.009194477373e+01
2.900288806280e+01
3.005753208959e+01
3.005681241408e+01
3.005929889833e+01
3.005633619353e+01
2.829284674002e+01
2.830263973592e+01
2.831878319592e+01
2.827674404628e+01
3.006049609922e+01
2.990582608280e+01
2.938284596035e+01
2.937475447985e+01
2.991897247372e+01
3.006201523574e+01
3.009186215079e+01
3.009303665985e+01
3.007157757752e+01
3.005958609907e+01
2.990770709882e+01
2.938904371100e+01
3.009120082707e+01
3.009268345221e+01
3.007245459824e+01
3.006196495174e+01
2.989486640417e+01
2.939638809452e+01
3.009116755117e+01
3.009341386350e+01
3.007060960581e+01
3.007103544651e+01
3.009274582181e+01
3.009165178905e+01
2.998299937102e+01
3.004834986744e+01
2.998369704330e+01
3.005219073813e+01
2.998496355126e+01
3.004536398635e+01
2.998604009731e+01
3.004974440717e+01
2.562014546491e+01
3.005105412498e+01
3.005064608808e+01
3.005158527290e+01
3.005003001213e+01
2.943626851529e+01
2.944046372224e+01
2.944733490441e+01
2.942966859536e+01
3.006853915306e+01
3.003749042204e+01
2.985785416459e+01
2.985535936804e+01
3.004194953491e+01
3.006932820222e+01
3.008142971676e+01
3.010067338708e+01
3.007544289593e+01
3.006806742653e+01
3.003828021432e+01
2.986053259826e+01
3.008127872999e+01
3.010061162937e+01
3.007545549140e+01
3.006835952860e+01
3.003421783514e+01
2.986309627336e+01
3.008107649524e+01
3.010089558701e+01
3.007505389174e+01
3.007516268319e+01
3.010057113670e+01
3.008132905440e+01
3.007540912239e+01
3.007789071235e+01
3.007552180272e+01
3.008031665553e+01
3.007624795464e+01
3.007699285675e+01
3.007641175971e+01
3.007800895313e+01
2.839682589128e+01
3.004493055418e+01
3.004465906104e+01
3.004492844718e+01
3.004412032712e+01
2.986144780515e+01
2.986379580858e+01
2.986787706538e+01
2.985757712552e+01
3.006549188490e+01
3.007956734833e+01
3.003227381873e+01
3.003204110205e+01
3.008068459330e+01
3.006590831007e+01
3.007078808095e+01
3.009429476197e+01
3.007036028055e+01
3.006521800104e+01
3.007991260544e+01
3.003358902113e+01
3.007082116367e+01
3.009433685737e+01
3.007007979552e+01
3.006483366876e+01
3.007916803780e+01
3.003410037061e+01
3.007058658104e+01
3.009445068368e+01
3.007020057133e+01
3.007018528893e+01
3.009427068318e+01
3.007074108945e+01
3.010075075646e+01
3.008122758786e+01
3.010064529419e+01
3.008293899735e+01
3.010110420874e+01
3.008113379328e+01
3.010095676612e+01
3.008090202700e+01
2.940947810090e+01
3.003997756576e+01
3.003975402428e+01
3.003974499576e+01
3.003940211720e+01
3.000667792984e+01
3.000798572532e+01
3.001030465762e+01
3.000454966234e+01
3.005885780675e+01
3.008263800724e+01
3.007803916576e+01
3.007840747062e+01
3.008265591431e+01
3.005914934784e+01
3.006178620498e+01
3.008348710153e+01
3.006277672582e+01
3.005866167759e+01
3.008281561522e+01
3.007874476163e+01
3.006183338844e+01
3.008356127655e+01
3.006245773529e+01
3.005811783522e+01
3.008311220907e+01
3.007869496746e+01
3.006162390210e+01
3.008362267854e+01
3.006267140776e+01
3.006262590812e+01
3.008348734124e+01
3.006176552730e+01
3.009639091236e+01
3.007426220951e+01
3.009625140896e+01
3.007558775754e+01
3.009660059169e+01
3.007439107620e+01
3.009637602320e+01
3.007387977944e+01
2.980525069629e+01
3.003630479368e+01
3.003610268209e+01
3.003599739102e+01
3.003586945752e+01
3.004161439344e+01
3.004256681520e+01
3.004429138666e+01
3.004004860022e+01
3.005316256048e+01
3.007702270151e+01
3.008300411224e+01
3.008349287584e+01
3.007676664211e+01
3.005339908968e+01
3.005537351870e+01
3.007478685825e+01
3.005659765597e+01
3.005299918884e+01
3.007714441514e+01
3.008349702046e+01
3.005540926185e+01
3.007486506499e+01
3.005629882277e+01
3.005246726510e+01
3.007766958627e+01
3.008330453903e+01
3.005522618525e+01
3.007491297035e+01
3.005650457440e+01
3.005645502258e+01
3.007479373909e+01
3.005536413529e+01
3.008780085885e+01
3.006714471736e+01
3.008766713639e+01
3.006827227010e+01
3.008796390207e+01
3.006731522535e+01
3.008773932891e+01
3.006678869205e+01
2.991619857381e+01
3.003382701281e+01
3.003362724884e+01
3.003355021077e+01
3.003345868458e+01
3.000671036869e+01
3.000770781971e+01
3.000948853550e+01
3.000506675574e+01
3.004864715229e+01
3.006648595676e+01
3.006214795925e+01
3.006242942977e+01
3.006649188905e+01
3.004888352419e+01
3.005126555679e+01
3.006829414314e+01
3.005193968803e+01
3.004848453182e+01
3.006662658738e+01
3.006268348961e+01
3.005127351109e+01
3.006835889600e+01
3.005169621708e+01
3.004806393149e+01
3.006685792062e+01
3.006264694963e+01
3.005111506231e+01
3.006841852368e+01
3.005183037860e+01
3.005179407524e+01
3.006829554466e+01
3.005125678200e+01
3.007731486261e+01
3.006064609711e+01
3.007721278748e+01
3.006171240891e+01
3.007749992525e+01
3.006073985678e+01
3.007732183799e+01
3.006036748619e+01
2.984998575399e+01
3.003242266599e+01
3.003220388514e+01
3.003230179532e+01
3.003204534250e+01
2.988507873243e+01
2.988663083020e+01
2.988931536577e+01
2.988251093965e+01
3.004492512525e+01
3.004900193771e+01
3.000876714841e+01
3.000844647784e+01
3.004992678132e+01
3.004522007638e+01
3.004927834674e+01
3.006351990247e+01
3.004844497554e+01
3.004472706899e+01
3.004925070670e+01
3.000965541533e+01
3.004923746341e+01
3.006354871529e+01
3.004830417977e+01
3.004455152634e+01
3.004854228999e+01
3.001012523559e+01
3.004910473372e+01
3.006365086801e+01
3.004828563565e+01
3.004828361667e+01
3.006350137987e+01
3.004925810499e+01
3.006341629861e+01
3.005405466027e+01
3.006337846822e+01
3.005520938945e+01
3.006370230034e+01
3.005392641408e+01
3.006363165651e+01
3.005392083635e+01
2.956313891267e+01
3.003191768665e+01
3.003163293541e+01
3.003218211935e+01
3.003147040720e+01
2.957899197809e+01
2.958195600298e+01
2.958690758106e+01
2.957413302913e+01
3.003994798427e+01
3.001048317895e+01
2.987849415021e+01
2.987663735861e+01
3.001374617577e+01
3.004042802608e+01
3.004901543720e+01
3.005775355926e+01
3.004435730648e+01
3.003964256151e+01
3.001102060602e+01
2.988031114297e+01
3.004885034882e+01
3.005769738771e+01
3.004445548700e+01
3.004003823889e+01
3.000794692018e+01
2.988210602916e+01
3.004876677938e+01
3.005791187875e+01
3.004405982790e+01
3.004414368287e+01
3.005768321377e+01
3.004896328148e+01
3.003501972544e+01
3.004288325766e+01
3.003513924800e+01
3.004436592051e+01
3.003558917255e+01
3.004219406277e+01
3.003577193275e+01
3.004309343041e+01
2.883417320246e+01
3.003178317460e+01
3.003129037074e+01
3.003299244077e+01
3.003130841592e+01
2.874352093350e+01
2.874997639113e+01
2.876041108575e+01
2.873309848479e+01
3.002614390346e+01
2.990004201080e+01
2.951358051721e+01
2.950735828702e+01
2.990974287193e+01
3.002717005179e+01
3.004879913033e+01
3.004065480892e+01
3.003314301241e+01
3.002553389241e+01
2.990136566561e+01
2.951781646722e+01
3.004822912301e+01
3.004037288922e+01
3.003394015971e+01
3.002752170845e+01
2.989174701763e+01
2.952338149653e+01
3.004830412674e+01
3.004091056497e+01
3.003241806376e+01
3.003274834308e+01
3.004044006232e+01
3.004866849708e+01
2.995149952110e+01
3.001056893240e+01
2.995208953967e+01
3.001291570936e+01
2.995290570663e+01
3.000829120554e+01
2.995379125635e+01
3.001180506515e+01
2.688098799134e+01
3.003171099228e+01
3.003116357655e+01
3.003316246582e+01
3.003123728569e+01
2.853177661261e+01
2.853900909820e+01
2.855058066982e+01
2.852022837596e+01
3.002240701801e+01
2.987094573694e+01
2.941891849541e+01
2.941153189174e+01
2.988230223220e+01
3.002358283109e+01
3.004861699637e+01
3.003592421054e+01
3.003006657332e+01
3.002171787805e+01
2.987247132471e+01
2.942375223515e+01
3.004793769743e+01
3.003558428046e+01
3.003104813599e+01
3.002411071823e+01
2.986116886450e+01
2.943034099332e+01
3.004805556978e+01
3.003620521853e+01
3.002922876827e+01
3.002962387500e+01
3.003567142486e+01
3.004846643698e+01
2.992920316427e+01
3.000190132750e+01
2.992991871683e+01
3.000446452017e+01
2.993083062416e+01
2.999920911372e+01
2.993189692166e+01
3.000340946963e+01
2.639870831077e+01
3.003152212922e+01
3.003089210686e+01
3.003331710427e+01
3.003107415273e+01
2.819814698622e+01
2.820691470884e+01
2.822104977413e+01
2.818392724112e+01
3.001651089281e+01
2.982681001482e+01
2.927476404744e+01
2.926572058777e+01
2.984069414335e+01
3.001788127666e+01
3.004800644348e+01
3.002834484103e+01
3.002516471534e+01
3.001570557075e+01
2.982863978190e+01
2.928055920621e+01
3.004716323276e+01
3.002791645831e+01
3.002642593963e+01
3.001875051019e+01
2.981475513677e+01
2.928853372977e+01
3.004734847753e+01
3.002866671967e+01
3.002415600155e+01
3.002464705590e+01
3.002803711825e+01
3.004782786969e+01
2.989544497976e+01
2.998849483349e+01
2.989634593905e+01
2.999137707583e+01
2.989739530087e+01
2.998518049962e+01
2.989874350273e+01
2.999041339183e+01
2.560196629050e+01
3.003166185365e+01
3.003089942780e+01
3.003395907244e+01
3.003127902975e+01
2.775478280388e+01
2.776455012656e+01
2.777967450976e+01
2.773971185925e+01
3.000791658708e+01
2.975969114183e+01
2.906384547523e+01
2.905203538746e+01
2.977717664463e+01
3.000968087474e+01
3.004768466927e+01
3.001699609538e+01
3.001808180696e+01
3.000692830819e+01
2.976195894668e+01
2.907078594712e+01
3.004656278601e+01
3.001644600836e+01
3.001977290003e+01
3.001082148638e+01
2.974440617780e+01
2.908127650664e+01
3.004685273929e+01
3.001738131200e+01
3.001679880153e+01
3.001744213419e+01
3.001659990904e+01
3.004746376250e+01
2.984246900808e+01
2.996818845198e+01
2.984367609681e+01
2.997152531512e+01
2.984495805436e+01
2.996392949612e+01
2.984669409669e+01
2.997075400886e+01
2.465911789957e+01
3.002932460441e+01
3.002853847606e+01
3.003222676938e+01
3.002860686975e+01
2.726748298277e+01
2.728222679805e+01
2.730689539355e+01
2.724243327646e+01
3.000236526588e+01
2.972412687144e+01
2.891102731619e+01
2.889819728183e+01
2.974474417118e+01
3.000403187124e+01
3.004577152247e+01
3.001217571633e+01
3.001323185325e+01
3.000129376248e+01
2.972678391454e+01
2.891992460891e+01
3.004466918198e+01
3.001148664974e+01
3.001512280505e+01
3.000613881735e+01
2.970607443053e+01
2.893092128935e+01
3.004498381385e+01
3.001255587585e+01
3.001190204410e+01
3.001260415969e+01
3.001173858061e+01
3.004550940629e+01
2.982299142472e+01
2.995836381788e+01
2.982425369053e+01
2.996216405826e+01
2.982556202846e+01
2.995355660705e+01
2.982767803753e+01
2.996114802176e+01
2.321825527817e+01
3.001765133228e+01
3.001733534582e+01
3.001842667792e+01
3.001745956953e+01
2.916591834701e+01
2.917009340892e+01
2.917751565345e+01
2.915791132118e+01
3.001163503975e+01
2.992372051348e+01
2.966821102819e+01
2.966414734612e+01
2.993010312570e+01
3.001233022915e+01
3.002677711985e+01
3.001857944709e+01
3.001601492473e+01
3.001123685795e+01
2.992456803712e+01
2.967083249930e+01
3.002635724563e+01
3.001839180914e+01
3.001659154263e+01
3.001258891169e+01
2.991819580613e+01
2.967431427184e+01
3.002642866050e+01
3.001874292682e+01
3.001551714979e+01
3.001574892608e+01
3.001843128190e+01
3.002668782968e+01
2.995590472815e+01
2.999921041143e+01
2.995634615935e+01
3.000062819619e+01
2.995690457773e+01
2.999765917372e+01
2.995749101741e+01
3.000010226924e+01
2.788333882173e+01
3.001355518986e+01
3.001334928384e+01
3.001387023660e+01
3.001347931031e+01
2.975795316232e+01
2.975606597088e+01
2.974888272174e+01
2.976757160997e+01
3.001198548380e+01
2.996858886013e+01
2.985658777007e+01
2.985338934474e+01
2.997134120748e+01
3.001257133995e+01
3.002042135036e+01
3.001719620067e+01
3.001455591232e+01
3.001176724761e+01
2.996899734615e+01
2.985730725333e+01
3.002015761977e+01
3.001714226582e+01
3.001483000741e+01
3.001208428615e+01
2.996632194380e+01
2.986100189966e+01
3.002020551436e+01
3.001731573513e+01
3.001425845215e+01
3.001438555192e+01
3.001712450590e+01
3.002040101499e+01
2.998259871372e+01
3.000636141423e+01
2.998281471309e+01
3.000713313272e+01
2.998308094547e+01
3.000560765730e+01
2.998332015842e+01
3.000684474779e+01
2.994172487431e+01
3.000956504911e+01
3.000945593962e+01
3.000956321049e+01
3.000959135779e+01
2.995688731918e+01
2.995567915803e+01
2.995365722575e+01
2.995851208627e+01
3.001033867721e+01
2.999541156253e+01
2.996425487043e+01
2.996335130794e+01
2.999606987444e+01
3.001069380756e+01
3.001415632569e+01
3.001406642173e+01
3.001174961211e+01
3.001022010654e+01
2.999552761153e+01
2.996416729707e+01
3.001399778691e+01
3.001407124775e+01
3.001183572298e+01
3.001014176142e+01
2.999491906304e+01
2.996513035156e+01
3.001398936982e+01
3.001412343953e+01
3.001159545070e+01
3.001164741844e+01
3.001402698473e+01
3.001413463753e+01
2.999945126827e+01
3.000903086476e+01
2.999959013686e+01
3.000938593372e+01
2.999982661538e+01
3.000874970483e+01
2.999980822119e+01
3.000921126238e+01
2.991345495657e+01
3.000605012212e+01
3.000599308399e+01
3.000593644658e+01
3.000610484098e+01
2.999624903218e+01
2.999622432838e+01
2.999626333377e+01
2.999610412079e+01
3.000748482042e+01
3.000548606516e+01
3.000045122264e+01
3.000037457762e+01
3.000554844035e+01
3.000759354684e+01
3.000879396396e+01
3.001015213346e+01
3.000827412009e+01
3.000743835519e+01
3.000550704268e+01
3.000041335737e+01
3.000873246622e+01
3.001017310206e+01
3.000827322122e+01
3.000737388204e+01
3.000545893541e+01
3.000046200135e+01
3.000872088296e+01
3.001019604217e+01
3.000820129415e+01
3.000821414326e+01
3.001014684793e+01
3.000879308643e+01
3.000682192971e+01
3.000813486258e+01
3.000685309402e+01
3.000831032720e+01
3.000695204006e+01
3.000808455172e+01
3.000691994279e+01
3.000816990105e+01
3.000302595950e+01
3.000328059726e+01
3.000325776209e+01
3.000322526761e+01
3.000327218414e+01
3.000796562585e+01
3.000797126407e+01
3.000795656188e+01
3.000801186236e+01
3.000466456563e+01
3.000645159890e+01
3.000761875999e+01
3.000765663536e+01
3.000640332824e+01
3.000469084570e+01
3.000494973400e+01
3.000650952545e+01
3.000501784580e+01
3.000464875225e+01
3.000645784719e+01
3.000763330841e+01
3.000494266089e+01
3.000652093360e+01
3.000499451423e+01
3.000459798438e+01
3.000652388094e+01
3.000762399923e+01
3.000493000004e+01
3.000652765692e+01
3.000500010631e+01
3.000499759379e+01
3.000651138462e+01
3.000495136881e+01
3.000718018558e+01
3.000577090620e+01
3.000717190824e+01
3.000586667325e+01
3.000720109111e+01
3.000578406827e+01
3.000717934834e+01
3.000574909925e+01
3.000734469377e+01
2.999974347241e+01
2.999974618024e+01
2.999975160542e+01
2.999973722282e+01
3.000007246944e+01
3.000007824788e+01
3.000009618856e+01
3.000004897211e+01
2.999971329396e+01
2.999981300830e+01
3.000001474802e+01
3.000001948956e+01
2.999981066975e+01
2.999971086814e+01
2.999966465843e+01
2.999963581581e+01
2.999968192949e+01
2.999971473923e+01
2.999981231847e+01
3.000001482302e+01
2.999966761726e+01
2.999963486083e+01
2.999968152202e+01
2.999971503774e+01