# vtk DataFile Version 3.0
Unstructured Grid from OpenGeoSys
ASCII
DATASET UNSTRUCTURED_GRID
FIELD TimesAndCycles 2
TIME 1 1 double
3.600000000000e+03
CYLCE 1 1 long
1
POINTS 1394 double
0.000000000000e+00 0.000000000000e+00 0.000000000000e+00
5.000000000000e+00 0.000000000000e+00 0.000000000000e+00
5.000000000000e+00 5.000000000000e+00 0.000000000000e+00
0.000000000000e+00 5.000000000000e+00 0.000000000000e+00
2.244234909000e+00 2.244234909000e+00 0.000000000000e+00
2.755765091000e+00 2.244234909000e+00 0.000000000000e+00
2.755765091000e+00 2.755765091000e+00 0.000000000000e+00
2.244234909000e+00 2.755765091000e+00 0.000000000000e+00
7.141316008320e-01 7.141316008320e-01 0.000000000000e+00
1.314642334730e+00 1.314642334730e+00 0.000000000000e+00
1.819609643610e+00 1.819609643610e+00 0.000000000000e+00
1.819609643610e+00 3.180390356390e+00 0.000000000000e+00
1.314642334740e+00 3.685357665260e+00 0.000000000000e+00
7.141316008360e-01 4.285868399160e+00 0.000000000000e+00
0.000000000000e+00 3.750000000000e+00 0.000000000000e+00
0.000000000000e+00 2.500000000000e+00 0.000000000000e+00
0.000000000000e+00 1.250000000000e+00 0.000000000000e+00
4.285868399170e+00 7.141316008320e-01 0.000000000000e+00
3.685357665270e+00 1.314642334730e+00 0.000000000000e+00
3.180390356390e+00 1.819609643610e+00 0.000000000000e+00
1.250000000000e+00 0.000000000000e+00 0.000000000000e+00
2.500000000000e+00 0.000000000000e+00 0.000000000000e+00
3.750000000000e+00 0.000000000000e+00 0.000000000000e+00
4.285868399170e+00 4.285868399170e+00 0.000000000000e+00
3.685357665270e+00 3.685357665270e+00 0.000000000000e+00
3.180390356390e+00 3.180390356390e+00 0.000000000000e+00
5.000000000000e+00 1.250000000000e+00 0.000000000000e+00
5.000000000000e+00 2.500000000000e+00 0.000000000000e+00
5.000000000000e+00 3.750000000000e+00 0.000000000000e+00
3.750000000000e+00 5.000000000000e+00 0.000000000000e+00
2.500000000000e+00 5.000000000000e+00 0.000000000000e+00
1.250000000000e+00 5.000000000000e+00 0.000000000000e+00
9.560744151940e-01 2.677827143250e+00 0.000000000000e+00
6.659597640160e-01 1.438876720610e+00 0.000000000000e+00
2.309219871940e+00 9.522638293400e-01 0.000000000000e+00
3.458157207860e+00 6.354750772000e-01 0.000000000000e+00
4.043925584810e+00 2.322172856750e+00 0.000000000000e+00
4.334040235980e+00 3.561123279390e+00 0.000000000000e+00
2.318530875810e+00 4.048536535600e+00 0.000000000000e+00
3.552396921680e+00 4.370927842320e+00 0.000000000000e+00
2.500000000000e+00 2.500000000000e+00 0.000000000000e+00
0.000000000000e+00 0.000000000000e+00 -5.000000000000e-01
5.000000000000e+00 0.000000000000e+00 -5.000000000000e-01
5.000000000000e+00 5.000000000000e+00 -5.000000000000e-01
0.000000000000e+00 5.000000000000e+00 -5.000000000000e-01
2.244234909000e+00 2.244234909000e+00 -5.000000000000e-01
2.755765091000e+00 2.244234909000e+00 -5.000000000000e-01
2.755765091000e+00 2.755765091000e+00 -5.000000000000e-01
2.244234909000e+00 2.755765091000e+00 -5.000000000000e-01
7.141316008320e-01 7.141316008320e-01 -5.000000000000e-01
1.314642334730e+00 1.314642334730e+00 -5.000000000000e-01
1.819609643610e+00 1.819609643610e+00 -5.000000000000e-01
1.819609643610e+00 3.180390356390e+00 -5.000000000000e-01
1.314642334740e+00 3.685357665260e+00 -5.000000000000e-01
7.141316008360e-01 4.285868399160e+00 -5.000000000000e-01
0.000000000000e+00 3.750000000000e+00 -5.000000000000e-01
0.000000000000e+00 2.500000000000e+00 -5.000000000000e-01
0.000000000000e+00 1.250000000000e+00 -5.000000000000e-01
4.285868399170e+00 7.141316008320e-01 -5.000000000000e-01
3.685357665270e+00 1.314642334730e+00 -5.000000000000e-01
3.180390356390e+00 1.819609643610e+00 -5.000000000000e-01
1.250000000000e+00 0.000000000000e+00 -5.000000000000e-01
2.500000000000e+00 0.000000000000e+00 -5.000000000000e-01
3.750000000000e+00 0.000000000000e+00 -5.000000000000e-01
4.285868399170e+00 4.285868399170e+00 -5.000000000000e-01
3.685357665270e+00 3.685357665270e+00 -5.000000000000e-01
3.180390356390e+00 3.180390356390e+00 -5.000000000000e-01
5.000000000000e+00 1.250000000000e+00 -5.000000000000e-01
5.000000000000e+00 2.500000000000e+00 -5.000000000000e-01
5.000000000000e+00 3.750000000000e+00 -5.000000000000e-01
3.750000000000e+00 5.000000000000e+00 -5.000000000000e-01
2.500000000000e+00 5.000000000000e+00 -5.000000000000e-01
1.250000000000e+00 5.000000000000e+00 -5.000000000000e-01
9.560744151940e-01 2.677827143250e+00 -5.000000000000e-01
6.659597640160e-01 1.438876720610e+00 -5.000000000000e-01
2.309219871940e+00 9.522638293400e-01 -5.000000000000e-01
3.458157207860e+00 6.354750772000e-01 -5.000000000000e-01
4.043925584810e+00 2.322172856750e+00 -5.000000000000e-01
4.334040235980e+00 3.561123279390e+00 -5.000000000000e-01
2.318530875810e+00 4.048536535600e+00 -5.000000000000e-01
3.552396921680e+00 4.370927842320e+00 -5.000000000000e-01
2.500000000000e+00 2.500000000000e+00 -5.000000000000e-01
0.000000000000e+00 0.000000000000e+00 -1.000000000000e+00
5.000000000000e+00 0.000000000000e+00 -1.000000000000e+00
5.000000000000e+00 5.000000000000e+00 -1.000000000000e+00
0.000000000000e+00 5.000000000000e+00 -1.000000000000e+00
2.244234909000e+00 2.244234909000e+00 -1.000000000000e+00
2.755765091000e+00 2.244234909000e+00 -1.000000000000e+00
2.755765091000e+00 2.755765091000e+00 -1.000000000000e+00
2.244234909000e+00 2.755765091000e+00 -1.000000000000e+00
7.141316008320e-01 7.141316008320e-01 -1.000000000000e+00
1.314642334730e+00 1.314642334730e+00 -1.000000000000e+00
1.819609643610e+00 1.819609643610e+00 -1.000000000000e+00
1.819609643610e+00 3.180390356390e+00 -1.000000000000e+00
1.314642334740e+00 3.685357665260e+00 -1.000000000000e+00
7.141316008360e-01 4.285868399160e+00 -1.000000000000e+00
0.000000000000e+00 3.750000000000e+00 -1.000000000000e+00
0.000000000000e+00 2.500000000000e+00 -1.000000000000e+00
0.000000000000e+00 1.250000000000e+00 -1.000000000000e+00
4.285868399170e+00 7.141316008320e-01 -1.000000000000e+00
3.685357665270e+00 1.314642334730e+00 -1.000000000000e+00
3.180390356390e+00 1.819609643610e+00 -1.000000000000e+00
1.250000000000e+00 0.000000000000e+00 -1.000000000000e+00
2.500000000000e+00 0.000000000000e+00 -1.000000000000e+00
3.750000000000e+00 0.000000000000e+00 -1.000000000000e+00
4.285868399170e+00 4.285868399170e+00 -1.000000000000e+00
3.685357665270e+00 3.685357665270e+00 -1.000000000000e+00
3.180390356390e+00 3.180390356390e+00 -1.000000000000e+00
5.000000000000e+00 1.250000000000e+00 -1.000000000000e+00
5.000000000000e+00 2.500000000000e+00 -1.000000000000e+00
5.000000000000e+00 3.750000000000e+00 -1.000000000000e+00
3.750000000000e+00 5.000000000000e+00 -1.000000000000e+00
2.500000000000e+00 5.000000000000e+00 -1.000000000000e+00
1.250000000000e+00 5.000000000000e+00 -1.000000000000e+00
9.560744151940e-01 2.677827143250e+00 -1.000000000000e+00
6.659597640160e-01 1.438876720610e+00 -1.000000000000e+00
2.309219871940e+00 9.522638293400e-01 -1.000000000000e+00
3.458157207860e+00 6.354750772000e-01 -1.000000000000e+00
4.043925584810e+00 2.322172856750e+00 -1.000000000000e+00
4.334040235980e+00 3.561123279390e+00 -1.000000000000e+00
2.318530875810e+00 4.048536535600e+00 -1.000000000000e+00
3.552396921680e+00 4.370927842320e+00 -1.000000000000e+00
2.500000000000e+00 2.500000000000e+00 -1.000000000000e+00
0.000000000000e+00 0.000000000000e+00 -3.000000000000e+00
5.000000000000e+00 0.000000000000e+00 -3.000000000000e+00
5.000000000000e+00 5.000000000000e+00 -3.000000000000e+00
0.000000000000e+00 5.000000000000e+00 -3.000000000000e+00
2.244234909000e+00 2.244234909000e+00 -3.000000000000e+00
2.755765091000e+00 2.244234909000e+00 -3.000000000000e+00
2.755765091000e+00 2.755765091000e+00 -3.000000000000e+00
2.244234909000e+00 2.755765091000e+00 -3.000000000000e+00
7.141316008320e-01 7.141316008320e-01 -3.000000000000e+00
1.314642334730e+00 1.314642334730e+00 -3.000000000000e+00
1.819609643610e+00 1.819609643610e+00 -3.000000000000e+00
1.819609643610e+00 3.180390356390e+00 -3.000000000000e+00
1.314642334740e+00 3.685357665260e+00 -3.000000000000e+00
7.141316008360e-01 4.285868399160e+00 -3.000000000000e+00
0.000000000000e+00 3.750000000000e+00 -3.000000000000e+00
0.000000000000e+00 2.500000000000e+00 -3.000000000000e+00
0.000000000000e+00 1.250000000000e+00 -3.000000000000e+00
4.285868399170e+00 7.141316008320e-01 -3.000000000000e+00
3.685357665270e+00 1.314642334730e+00 -3.000000000000e+00
3.180390356390e+00 1.819609643610e+00 -3.000000000000e+00
1.250000000000e+00 0.000000000000e+00 -3.000000000000e+00
2.500000000000e+00 0.000000000000e+00 -3.000000000000e+00
3.750000000000e+00 0.000000000000e+00 -3.000000000000e+00
4.285868399170e+00 4.285868399170e+00 -3.000000000000e+00
3.685357665270e+00 3.685357665270e+00 -3.000000000000e+00
3.180390356390e+00 3.180390356390e+00 -3.000000000000e+00
5.000000000000e+00 1.250000000000e+00 -3.000000000000e+00
5.000000000000e+00 2.500000000000e+00 -3.000000000000e+00
5.000000000000e+00 3.750000000000e+00 -3.000000000000e+00
3.750000000000e+00 5.000000000000e+00 -3.000000000000e+00
2.500000000000e+00 5.000000000000e+00 -3.000000000000e+00
1.250000000000e+00 5.000000000000e+00 -3.000000000000e+00
9.560744151940e-01 2.677827143250e+00 -3.000000000000e+00
6.659597640160e-01 1.438876720610e+00 -3.000000000000e+00
2.309219871940e+00 9.522638293400e-01 -3.000000000000e+00
3.458157207860e+00 6.354750772000e-01 -3.000000000000e+00
4.043925584810e+00 2.322172856750e+00 -3.000000000000e+00
4.334040235980e+00 3.561123279390e+00 -3.000000000000e+00
2.318530875810e+00 4.048536535600e+00 -3.000000000000e+00
3.552396921680e+00 4.370927842320e+00 -3.000000000000e+00
2.500000000000e+00 2.500000000000e+00 -3.000000000000e+00
0.000000000000e+00 0.000000000000e+00 -5.000000000000e+00
5.000000000000e+00 0.000000000000e+00 -5.000000000000e+00
5.000000000000e+00 5.000000000000e+00 -5.000000000000e+00
0.000000000000e+00 5.000000000000e+00 -5.000000000000e+00
2.244234909000e+00 2.244234909000e+00 -5.000000000000e+00
[...]
POINT_DATA 1394
SCALARS TEMPERATURE1 double 1
LOOKUP_TABLE default
1.000000000000e+01
1.000000000000e+01
1.000000000000e+01
1.000000000000e+01
1.000000000000e+01
1.000000000000e+01
1.000000000000e+01
1.000000000000e+01
1.000000000000e+01
1.000000000000e+01
1.000000000000e+01
1.000000000000e+01
1.000000000000e+01
1.000000000000e+01
1.000000000000e+01
1.000000000000e+01
1.000000000000e+01
1.000000000000e+01
1.000000000000e+01
1.000000000000e+01
1.000000000000e+01
1.000000000000e+01
1.000000000000e+01
1.000000000000e+01
1.000000000000e+01
1.000000000000e+01
1.000000000000e+01
1.000000000000e+01
1.000000000000e+01
1.000000000000e+01
1.000000000000e+01
1.000000000000e+01
1.000000000000e+01
1.000000000000e+01
1.000000000000e+01
1.000000000000e+01
1.000000000000e+01
1.000000000000e+01
1.000000000000e+01
1.000000000000e+01
1.000000000000e+01
2.989931831797e+01
2.989968025735e+01
2.990248630008e+01
2.989624570410e+01
3.006307642582e+01
3.002467691936e+01
3.003485785262e+01
2.998963942995e+01
2.990398161072e+01
2.988279081844e+01
2.981529328405e+01
2.981565560746e+01
2.988329623598e+01
2.990569592844e+01
2.990430835275e+01
2.990771552705e+01
2.989851849503e+01
2.990363104507e+01
2.988351707298e+01
2.981471306938e+01
2.990452049927e+01
2.990694065383e+01
2.989889299383e+01
2.990218998996e+01
2.988412510730e+01
2.981654165944e+01
2.990401825282e+01
2.990647384591e+01
2.989981502540e+01
2.989951951562e+01
2.990719199059e+01
2.990371443411e+01
2.989671364257e+01
2.990559427447e+01
2.989780561704e+01
2.990580611033e+01
2.989894220236e+01
2.990405051968e+01
2.989799786648e+01
2.990469853643e+01
3.068214212192e+01
3.024501187588e+01
3.024438675416e+01
3.023736074896e+01
3.025262539472e+01
3.216382299740e+01
3.225536935764e+01
3.221695877527e+01
3.235589479771e+01
3.024086125816e+01
3.032060827207e+01
3.105489805743e+01
3.106000530862e+01
3.030352986613e+01
3.024190234146e+01
3.024681860009e+01
3.022507241790e+01
3.025212470032e+01
3.024109069465e+01
3.031670612691e+01
3.103584752222e+01
3.024486321961e+01
3.022766989987e+01
3.025091552410e+01
3.023619434476e+01
3.033188432179e+01
3.101860521394e+01
3.024527379650e+01
3.022742473088e+01
3.024818621617e+01
3.024938423005e+01
3.022565635250e+01
3.024745456258e+01
3.018443680256e+01
3.023160831177e+01
3.018413001530e+01
3.022911677531e+01
3.018569944180e+01
3.023616487847e+01
3.018410055527e+01
3.023448191273e+01
3.069100852919e+01
2.994023542062e+01
2.993890397864e+01
2.992493753174e+01
2.995435936556e+01
3.211515398202e+01
3.218792554061e+01
3.213306986793e+01
3.232377140353e+01
2.992273680706e+01
3.007803757250e+01
3.093554906583e+01
3.094554838268e+01
3.005683380043e+01
2.991936328274e+01
2.991653858457e+01
2.989174180689e+01
2.994109419910e+01
2.992397524411e+01
3.007259373052e+01
3.092500928069e+01
2.991446296219e+01
2.989528343186e+01
2.993950707187e+01
2.992310693173e+01
3.008940418593e+01
3.090868874613e+01
2.991607700059e+01
2.989619399504e+01
2.993632114736e+01
2.993732143935e+01
2.989360748899e+01
2.991851996279e+01
2.992156462033e+01
2.991570054308e+01
2.991906501018e+01
2.991186396212e+01
2.991679036468e+01
2.992228089868e+01
2.991703154485e+01
2.991850795800e+01
3.034661442728e+01
3.002922136060e+01
3.002815527056e+01
3.001658142001e+01
3.004098968463e+01
3.220412820996e+01
3.227171897129e+01
3.222006125163e+01
3.239548031326e+01
3.001607468218e+01
3.014860258737e+01
3.095802079190e+01
3.096640769188e+01
3.012863841927e+01
3.001413829919e+01
3.001249378416e+01
2.998947425011e+01
3.003113554490e+01
3.001698450786e+01
3.014380693613e+01
3.094521551082e+01
3.001051700745e+01
2.999258158844e+01
3.002974434611e+01
3.001481229525e+01
3.016030618174e+01
3.092993674032e+01
3.001173152326e+01
2.999309753932e+01
3.002693380185e+01
3.002788604888e+01
2.999090274435e+01
3.001401418618e+01
3.000111960019e+01
3.000911860610e+01
2.999939077891e+01
3.000563178441e+01
2.999824588107e+01
3.001481927053e+01
2.999784241293e+01
3.001168254970e+01
3.047809326808e+01
3.000458304348e+01
3.000355277551e+01
2.999232184214e+01
3.001595530437e+01
3.218748474150e+01
3.224658559096e+01
3.219384815086e+01
3.236914938807e+01
2.999176344822e+01
3.012132437700e+01
3.090777586415e+01
3.091585387646e+01
3.010173645796e+01
2.998991703431e+01
2.998786149576e+01
2.996564907013e+01
3.000609428341e+01
2.999265510932e+01
3.011667863525e+01
3.089558292644e+01
2.998595634535e+01
2.996862815242e+01
3.000477188878e+01
2.999050875547e+01
3.013292563230e+01
3.088158693044e+01
2.998714298158e+01
2.996913055629e+01
3.000212391148e+01
3.000300850339e+01
2.996704013734e+01
2.998933976804e+01
2.997829760421e+01
2.998521490337e+01
2.997663443937e+01
2.998178356538e+01
2.997544590322e+01
2.999066442442e+01
2.997503392866e+01
2.998760472444e+01
3.052186281212e+01
3.001008560362e+01
3.000913646432e+01
2.999861110214e+01
3.002071320500e+01
3.218345588464e+01
3.223556982292e+01
3.218412603549e+01
3.235230617251e+01
2.999831580029e+01
3.012151603433e+01
3.088079735087e+01
3.088852371080e+01
3.010245789126e+01
2.999679198033e+01
2.999458073722e+01
2.997336250687e+01
3.001143739651e+01
2.999912707063e+01
3.011711732204e+01
3.086864944725e+01
2.999274769082e+01
2.997615649204e+01
3.001020742105e+01
2.999677588801e+01
3.013310448378e+01
3.085552813484e+01
2.999383215700e+01
2.997657032326e+01
3.000776133530e+01
3.000858024930e+01
2.997463881604e+01
2.999593317749e+01
2.998372754450e+01
2.999214340495e+01
2.998227214651e+01
2.998881348663e+01
2.998128416302e+01
2.999722692545e+01
2.998073304148e+01
2.999434112481e+01
3.058503920011e+01
3.000887422322e+01
3.000790918056e+01
2.999729100318e+01
3.001962033830e+01
3.214742567456e+01
3.220265776908e+01
3.215236810326e+01
3.231891112761e+01
2.999697556453e+01
3.012042205747e+01
3.088117256114e+01
3.088900530724e+01
3.010140690001e+01
2.999539077146e+01
2.999343716687e+01
2.997205681961e+01
3.001042190970e+01
2.999780084023e+01
3.011596417087e+01
3.086905301817e+01
2.999159508062e+01
2.997488971603e+01
3.000916400194e+01
2.999551260631e+01
3.013184963104e+01
3.085546876050e+01
2.999269122184e+01
2.997532188256e+01
3.000665524554e+01
3.000750186064e+01
2.997334984606e+01
2.999480929979e+01
2.998214696667e+01
2.999065424425e+01
2.998064807782e+01
2.998734780006e+01
2.997965231915e+01
2.999582381072e+01
2.997914181482e+01
2.999292539042e+01
3.048843480648e+01
3.000733196690e+01
3.000659340214e+01
2.999792963255e+01
3.001601694975e+01
3.191840533565e+01
3.195855672116e+01
3.192426515621e+01
3.203891654951e+01
2.999815265832e+01
3.010163290105e+01
3.076539740873e+01
3.077354872951e+01
3.008461022241e+01
2.999731503485e+01
2.999536941762e+01
2.997705836258e+01
3.000858933639e+01
2.999874513311e+01
3.009784184772e+01
3.075411880416e+01
2.999374288456e+01
2.997935764565e+01
3.000758726807e+01
2.999621538463e+01
3.011239347097e+01
3.074073880936e+01
2.999452771630e+01
2.997956947614e+01
3.000560499071e+01
3.000628083009e+01
2.997802841217e+01
2.999636692657e+01
2.998127485149e+01
2.999282984637e+01
2.998037417694e+01
2.998991586104e+01
2.998003842639e+01
2.999694190175e+01
2.997917911589e+01
2.999457956026e+01
3.077331834102e+01
3.000639785313e+01
3.000576619185e+01
2.999818583159e+01
3.001395745686e+01
3.169020654397e+01
3.172292372203e+01
3.169714318453e+01
3.178481930029e+01
2.999842449844e+01
3.008917680914e+01
3.067478216063e+01
3.068270063716e+01
3.007397456547e+01
2.999778254150e+01
2.999598546632e+01
2.997986222506e+01
3.000742784227e+01
2.999891956970e+01
3.008582493590e+01
3.066483782669e+01
2.999453754874e+01
2.998185234369e+01
3.000657092641e+01
2.999661670267e+01
3.009886847935e+01
3.065223916761e+01
2.999519174594e+01
2.998200977854e+01
3.000487079860e+01
3.000544765927e+01
2.998069016969e+01
2.999681959970e+01
2.998298072393e+01
2.999376333004e+01
2.998229030658e+01
2.999117214922e+01
2.998212217586e+01
2.999728330172e+01
2.998125843126e+01
2.999523286348e+01
3.083093420203e+01
3.000570584864e+01
3.000515667943e+01
2.999840878531e+01
3.001240459718e+01
3.150082028031e+01
3.152861989411e+01
3.151017963552e+01
3.157518003483e+01
2.999865977185e+01
3.007950112858e+01
3.060438155867e+01
3.061218909521e+01
3.006573089167e+01
2.999816031158e+01
2.999652409941e+01
2.998208222860e+01
3.000659121033e+01
2.999907798155e+01
3.007648684758e+01
3.059545509304e+01
2.999521217937e+01
2.998383681866e+01
3.000584362913e+01
2.999696260780e+01
3.008833470345e+01
3.058327253211e+01
2.999576331083e+01
2.998395194528e+01
3.000435298137e+01
3.000485715737e+01
2.998279945917e+01
2.999723038021e+01
2.998427395071e+01
2.999449249138e+01
2.998374691840e+01
2.999215565988e+01
2.998372217159e+01
2.999756274617e+01
2.998285528701e+01
2.999575452052e+01
3.089941804359e+01
3.000516677391e+01
3.000467997560e+01
2.999856209656e+01
3.001121699708e+01
3.136053189081e+01
3.138489681012e+01
3.137189389721e+01
3.142014843471e+01
2.999884091500e+01
3.007221371215e+01
3.055233006320e+01
3.056003914247e+01
3.005950672227e+01
2.999845782755e+01
2.999696469860e+01
2.998376279783e+01
3.000596927539e+01
2.999920017565e+01
3.006945033735e+01
3.054411960157e+01
2.999575285055e+01
2.998534281194e+01
3.000530188709e+01
2.999721023376e+01
3.008041510326e+01
3.053222936262e+01
2.999622491035e+01
2.998542350340e+01
3.000396482193e+01
3.000441700327e+01
2.998439511682e+01
2.999757364592e+01
2.998506658505e+01
2.999502856104e+01
2.998466463978e+01
2.999288269757e+01
2.998475665284e+01
2.999776634500e+01
2.998388282145e+01
2.999614093455e+01
3.096129930039e+01
3.000477068247e+01
3.000433007561e+01
2.999866899649e+01
3.001035254610e+01
3.126655648996e+01
3.128867155732e+01
3.127955422964e+01
3.131586759952e+01
2.999900040876e+01
3.006706738770e+01
3.051710975566e+01
3.052475953801e+01
3.005507487324e+01
2.999872129143e+01
2.999734664907e+01
2.998498717785e+01
3.000554289164e+01
2.999931433941e+01
3.006447802312e+01
3.050932125667e+01
2.999620141865e+01
2.998644478896e+01
3.000493114659e+01
2.999738118483e+01
3.007486274280e+01
3.049757893907e+01
2.999661278537e+01
2.998649461168e+01
3.000370108753e+01
3.000411872057e+01
2.998555485730e+01
2.999788196302e+01
2.998535034269e+01
2.999542099853e+01
2.998504722112e+01
2.999340673027e+01
2.998524289467e+01
2.999792519581e+01
2.998434948326e+01
2.999643137794e+01
3.102549413814e+01
3.000450073685e+01
3.000409209805e+01
2.999872956332e+01
3.000977834711e+01
3.121527223815e+01
3.123624637465e+01
3.122975052889e+01
3.125808695414e+01
2.999914141782e+01
3.006389493007e+01
3.049768330603e+01
3.050533545835e+01
3.005228525889e+01
2.999895908677e+01
2.999768145415e+01
2.998579180195e+01
3.000529371167e+01
2.999942139190e+01
3.006140762670e+01
3.049003242300e+01
2.999657081614e+01
2.998717475570e+01
3.000471520986e+01
2.999747645193e+01
3.007150266997e+01
3.047826266090e+01
2.999693682450e+01
2.998719539826e+01
3.000354955359e+01
3.000394876390e+01
2.998631229156e+01
2.999816323981e+01
2.998511396920e+01
2.999568018366e+01
2.998488933455e+01
2.999374158289e+01
2.998518332582e+01
2.999804053771e+01
2.998425403974e+01
2.999663180314e+01
3.109428174059e+01
3.000434478053e+01
3.000395649875e+01
2.999874532978e+01
3.000947020167e+01
3.120194069091e+01
3.122303521484e+01
3.121857007533e+01
3.124105812116e+01
2.999927796548e+01
3.006260296174e+01
3.049396953568e+01
3.050176631284e+01
3.005103843841e+01
2.999919517271e+01
2.999800350959e+01
2.998621293571e+01
3.000521901957e+01
2.999953141822e+01
3.006014588060e+01
3.048614801020e+01
2.999689361632e+01
2.998756618557e+01
3.000465235796e+01
2.999749747202e+01
3.007025134099e+01
3.047403084211e+01
2.999722396533e+01
2.998755478616e+01
3.000351010375e+01
3.000390698951e+01
2.998669918535e+01
2.999844581575e+01
2.998425488153e+01
2.999581816990e+01
2.998409996784e+01
2.999389986230e+01
2.998450814488e+01
2.999811804342e+01
2.998351498522e+01
2.999675198166e+01
3.117215241365e+01
3.000435365774e+01
3.000396402293e+01
2.999867267510e+01
3.000957790141e+01
3.121669073889e+01
3.124134149918e+01
3.123866494224e+01
3.125732823143e+01
2.999935951001e+01
3.006376273551e+01
3.051052079363e+01
3.051866541875e+01
3.005186153486e+01
2.999934157955e+01
2.999833604011e+01
2.998610883762e+01
3.000546499945e+01
2.999960081444e+01
3.006122978210e+01
3.050213285513e+01
2.999717961252e+01
2.998750792761e+01
3.000487137884e+01
2.999741930442e+01
3.007165515573e+01
3.048905463998e+01
2.999749323375e+01
2.998746951691e+01
3.000367057739e+01
3.000409779623e+01
2.998658526333e+01
2.999876615908e+01
2.998253524692e+01
2.999569163016e+01
2.998241694135e+01
2.999373260603e+01
2.998295382086e+01
2.999807688617e+01
2.998188357011e+01
2.999669287553e+01
3.125405627342e+01
3.000435065073e+01
3.000396385785e+01
2.999866426987e+01
3.000958157673e+01
3.121964410056e+01
3.124469739542e+01
3.124308299873e+01
3.125891978484e+01
2.999939124451e+01
3.006401826574e+01
3.051426477031e+01
3.052259270464e+01
3.005201519280e+01
2.999939981943e+01
2.999840658558e+01
2.998609569216e+01
3.000549449113e+01
2.999962643863e+01
3.006146744562e+01
3.050575274846e+01
2.999723879750e+01
2.998749879871e+01
3.000489819140e+01
2.999740198848e+01
3.007199506521e+01
3.049234287392e+01
2.999754297432e+01
2.998744980098e+01
3.000369286460e+01
3.000412334966e+01
2.998656558688e+01
2.999882745529e+01
2.998215095482e+01
2.999569333972e+01
2.998205513640e+01
2.999372177736e+01
2.998263826255e+01
2.999808352811e+01
2.998153588150e+01
2.999669825911e+01
3.126439281207e+01
3.000437805246e+01
3.000398856571e+01
2.999863281355e+01
3.000967056181e+01
3.122518330066e+01
3.125160067438e+01
3.125090951421e+01
3.126468099672e+01
2.999940522893e+01
3.006468584162e+01
3.052165532941e+01
3.053017927599e+01
3.005252451920e+01
2.999942868872e+01
2.999849747185e+01
2.998599097071e+01
3.000560486574e+01
2.999963805671e+01
3.006209560813e+01
3.051294332628e+01
2.999730921535e+01
2.998741576527e+01
3.000499651330e+01
2.999736550409e+01
3.007276478775e+01
3.049909080999e+01
2.999760922914e+01
2.998735905092e+01
3.000376523926e+01
3.000420786069e+01
2.998646052172e+01
2.999891645061e+01
2.998155631118e+01
2.999562202772e+01
2.998147141980e+01
2.999362984894e+01
2.998210016501e+01
2.999805177227e+01
2.998096909341e+01
2.999665401539e+01
3.127710091896e+01
3.000436384447e+01
3.000397498124e+01
2.999861196749e+01
3.000967088503e+01
3.121838879049e+01
3.124606079747e+01
3.124628746047e+01
3.125795770293e+01
2.999942417336e+01
3.006477182221e+01
3.052427856054e+01
3.053291237641e+01
3.005256923600e+01
2.999946022735e+01
2.999860240811e+01
2.998601649091e+01
3.000566748274e+01
2.999965305487e+01
3.006216531202e+01
3.051544416349e+01
2.999740498758e+01
2.998745073922e+01
3.000505149347e+01
2.999735451217e+01
3.007287225609e+01
3.050127232394e+01
2.999769832749e+01
2.998738708502e+01
3.000380414232e+01
3.000425558846e+01
2.998648155490e+01
2.999901626212e+01
2.998114161897e+01
2.999559081830e+01
2.998106651891e+01
2.999359745487e+01
2.998173435659e+01
2.999804133362e+01
2.998058680164e+01
2.999664297395e+01
3.129628339590e+01
3.000470871220e+01
3.000428855364e+01
2.999848230534e+01
3.001045835862e+01
3.126657242835e+01
3.129809785289e+01
3.130156212480e+01
3.130600722980e+01
2.999932470656e+01
3.006956448274e+01
3.056227755209e+01
3.057194620021e+01
3.005648502237e+01
2.999932574834e+01
2.999850854621e+01
2.998495297803e+01
3.000616967088e+01
2.999956954243e+01
3.006673784068e+01
3.055284998433e+01
2.999721504750e+01
2.998650304058e+01
3.000549967469e+01
2.999715703385e+01
3.007817786168e+01
3.053689159360e+01
2.999752429700e+01
2.998643829826e+01
3.000413735159e+01
3.000463086582e+01
2.998545377050e+01
2.999894955978e+01
2.997976490792e+01
2.999516395370e+01
2.997968875414e+01
2.999303328589e+01
2.998044502842e+01
2.999781556046e+01
2.997921041096e+01
2.999631218435e+01
3.128597542610e+01
3.000265487892e+01
3.000241089974e+01
2.999906459622e+01
3.000599472000e+01
3.097654477037e+01
3.099314872593e+01
3.098263640016e+01
3.101839661284e+01
3.000001959451e+01
3.004251687605e+01
3.036536438471e+01
3.036975797571e+01
3.003405515883e+01
3.000034818039e+01
2.999993582642e+01
2.999121593561e+01
3.000382003478e+01
3.000014848364e+01
3.004080825464e+01
3.035848098090e+01
2.999911846318e+01
2.999218001953e+01
3.000340932352e+01
2.999816786306e+01
3.004841422014e+01
3.035086902068e+01
2.999929930928e+01
2.999207990755e+01
3.000258190102e+01
3.000290202096e+01
2.999149049076e+01
3.000019356455e+01
2.998396566715e+01
2.999725397204e+01
2.998396108896e+01
2.999589468983e+01
2.998446283020e+01
2.999889210407e+01
2.998360936148e+01
2.999799865755e+01
3.127160795370e+01
3.000122088304e+01
3.000116452301e+01
2.999970696718e+01
3.000254861497e+01
3.031122588475e+01
3.031339397581e+01
3.033027793139e+01
3.028524525943e+01
3.000003412117e+01
3.001911595470e+01
3.015605695834e+01
3.016119992695e+01
3.001496453384e+01
3.000025069951e+01
2.999955734676e+01
2.999602765426e+01
3.000128968000e+01
3.000003252059e+01
3.001828661924e+01
3.015355475898e+01
2.999917155058e+01
2.999634176243e+01
3.000116548886e+01
2.999920878161e+01
3.002203312625e+01
3.014618206933e+01
2.999913862097e+01
2.999623672020e+01
3.000093823019e+01
3.000101319350e+01
2.999608209091e+01
2.999954605027e+01
2.999427183496e+01
2.999915321233e+01
2.999454348765e+01
2.999850247894e+01
2.999513698111e+01
2.999961657548e+01
2.999449211720e+01
2.999925776587e+01
3.039919843677e+01
3.000038646908e+01
3.000035350004e+01
2.999995056717e+01
3.000077411454e+01
3.004030249226e+01
3.004140009413e+01
3.004162405193e+01
3.004164739610e+01
2.999979771711e+01
3.000435389503e+01
3.002388511853e+01
3.002440502644e+01
3.000382153986e+01
2.999965608618e+01
2.999939614967e+01
2.999886176157e+01
3.000023147861e+01
2.999983062065e+01
3.000423106636e+01
3.002379195728e+01
2.999934669711e+01
2.999894058799e+01
3.000020154237e+01
2.999988375366e+01
3.000463774937e+01
3.002316344822e+01
2.999939106681e+01
2.999897064015e+01
3.000014242523e+01
3.000015147207e+01
2.999891473865e+01
2.999944716657e+01
3.000086651001e+01
2.999973246785e+01
3.000080538005e+01
2.999961712440e+01
3.000072833692e+01
2.999987460479e+01
3.000073763458e+01
2.999976352088e+01
3.002596449347e+01
2.999999951212e+01
3.000000018284e+01
3.000001015354e+01
2.999998841357e+01
2.999415257584e+01
2.999399397376e+01
2.999393665640e+01
2.999404165665e+01
2.999998856211e+01
2.999992133316e+01
2.999783285032e+01
2.999779490344e+01
2.999997781515e+01
2.999997289653e+01
2.999993247543e+01
3.000000338397e+01
2.999996084411e+01
2.999999017591e+01
2.999993447597e+01
2.999789884372e+01
2.999993932443e+01
2.999999741191e+01
2.999996317633e+01
3.000001475517e+01
2.999988131330e+01
2.999798163322e+01
2.999994106165e+01
3.000000037616e+01
2.999997070930e+01
2.999996652464e+01
3.000000403693e+01
2.999993393936e+01
3.000032833986e+01
3.000003048291e+01
3.000032222831e+01
3.000003567107e+01
3.000030676912e+01
3.000002349917e+01
3.000031820358e+01
3.000002272118e+01
2.999968398952e+01
2.999999270192e+01
2.999999326876e+01
3.000000012697e+01
2.999998630022e+01
2.999976941401e+01
2.999976971818e+01
2.999975413204e+01
2.999979038694e+01
3.000000488473e+01
2.999992887225e+01
2.999973296904e+01
2.999972354723e+01
2.999993493008e+01
3.000000855766e+01
3.000001564151e+01
3.000002075711e+01
2.999999840044e+01
3.000000418641e+01
2.999993038529e+01
2.999972874537e+01
3.000001610868e+01
3.000001977776e+01
2.999999872494e+01
3.000000125349e+01
2.999992656574e+01
2.999973701180e+01
3.000001520777e+01
3.000001897997e+01
2.999999925706e+01
2.999999940873e+01
3.000001972859e+01
3.000001465020e+01
2.999996244914e+01
3.000000358024e+01
2.999996385123e+01
3.000000529651e+01
2.999996620134e+01
3.000000172470e+01
2.999996532821e+01
3.000000368704e+01
2.999891271570e+01
3.000000194714e+01
3.000000179314e+01
2.999999994042e+01
3.000000368060e+01
3.000007095468e+01
3.000007108413e+01
3.000007549118e+01
3.000006526611e+01
2.999999870915e+01
3.000001894368e+01
3.000007488914e+01
3.000007750107e+01
3.000001721841e+01
2.999999776307e+01
2.999999600582e+01
2.999999447952e+01
3.000000052975e+01
2.999999889247e+01
3.000001850679e+01
3.000007591416e+01
2.999999586642e+01
2.999999475427e+01
3.000000043869e+01
2.999999963099e+01