# vtk DataFile Version 3.0
Unstructured Grid from OpenGeoSys
ASCII
DATASET UNSTRUCTURED_GRID
FIELD TimesAndCycles 2
TIME 1 1 double
3.600000000000e+03
CYLCE 1 1 long
1
POINTS 1394 double
0.000000000000e+00 0.000000000000e+00 0.000000000000e+00
5.000000000000e+00 0.000000000000e+00 0.000000000000e+00
5.000000000000e+00 5.000000000000e+00 0.000000000000e+00
0.000000000000e+00 5.000000000000e+00 0.000000000000e+00
2.244234909000e+00 2.244234909000e+00 0.000000000000e+00
2.755765091000e+00 2.244234909000e+00 0.000000000000e+00
2.755765091000e+00 2.755765091000e+00 0.000000000000e+00
2.244234909000e+00 2.755765091000e+00 0.000000000000e+00
7.141316008320e-01 7.141316008320e-01 0.000000000000e+00
1.314642334730e+00 1.314642334730e+00 0.000000000000e+00
1.819609643610e+00 1.819609643610e+00 0.000000000000e+00
1.819609643610e+00 3.180390356390e+00 0.000000000000e+00
1.314642334740e+00 3.685357665260e+00 0.000000000000e+00
7.141316008360e-01 4.285868399160e+00 0.000000000000e+00
0.000000000000e+00 3.750000000000e+00 0.000000000000e+00
0.000000000000e+00 2.500000000000e+00 0.000000000000e+00
0.000000000000e+00 1.250000000000e+00 0.000000000000e+00
4.285868399170e+00 7.141316008320e-01 0.000000000000e+00
3.685357665270e+00 1.314642334730e+00 0.000000000000e+00
3.180390356390e+00 1.819609643610e+00 0.000000000000e+00
1.250000000000e+00 0.000000000000e+00 0.000000000000e+00
2.500000000000e+00 0.000000000000e+00 0.000000000000e+00
3.750000000000e+00 0.000000000000e+00 0.000000000000e+00
4.285868399170e+00 4.285868399170e+00 0.000000000000e+00
3.685357665270e+00 3.685357665270e+00 0.000000000000e+00
3.180390356390e+00 3.180390356390e+00 0.000000000000e+00
5.000000000000e+00 1.250000000000e+00 0.000000000000e+00
5.000000000000e+00 2.500000000000e+00 0.000000000000e+00
5.000000000000e+00 3.750000000000e+00 0.000000000000e+00
3.750000000000e+00 5.000000000000e+00 0.000000000000e+00
2.500000000000e+00 5.000000000000e+00 0.000000000000e+00
1.250000000000e+00 5.000000000000e+00 0.000000000000e+00
9.560744151940e-01 2.677827143250e+00 0.000000000000e+00
6.659597640160e-01 1.438876720610e+00 0.000000000000e+00
2.309219871940e+00 9.522638293400e-01 0.000000000000e+00
3.458157207860e+00 6.354750772000e-01 0.000000000000e+00
4.043925584810e+00 2.322172856750e+00 0.000000000000e+00
4.334040235980e+00 3.561123279390e+00 0.000000000000e+00
2.318530875810e+00 4.048536535600e+00 0.000000000000e+00
3.552396921680e+00 4.370927842320e+00 0.000000000000e+00
2.500000000000e+00 2.500000000000e+00 0.000000000000e+00
0.000000000000e+00 0.000000000000e+00 -5.000000000000e-01
5.000000000000e+00 0.000000000000e+00 -5.000000000000e-01
5.000000000000e+00 5.000000000000e+00 -5.000000000000e-01
0.000000000000e+00 5.000000000000e+00 -5.000000000000e-01
2.244234909000e+00 2.244234909000e+00 -5.000000000000e-01
2.755765091000e+00 2.244234909000e+00 -5.000000000000e-01
2.755765091000e+00 2.755765091000e+00 -5.000000000000e-01
2.244234909000e+00 2.755765091000e+00 -5.000000000000e-01
7.141316008320e-01 7.141316008320e-01 -5.000000000000e-01
1.314642334730e+00 1.314642334730e+00 -5.000000000000e-01
1.819609643610e+00 1.819609643610e+00 -5.000000000000e-01
1.819609643610e+00 3.180390356390e+00 -5.000000000000e-01
1.314642334740e+00 3.685357665260e+00 -5.000000000000e-01
7.141316008360e-01 4.285868399160e+00 -5.000000000000e-01
0.000000000000e+00 3.750000000000e+00 -5.000000000000e-01
0.000000000000e+00 2.500000000000e+00 -5.000000000000e-01
0.000000000000e+00 1.250000000000e+00 -5.000000000000e-01
4.285868399170e+00 7.141316008320e-01 -5.000000000000e-01
3.685357665270e+00 1.314642334730e+00 -5.000000000000e-01
3.180390356390e+00 1.819609643610e+00 -5.000000000000e-01
1.250000000000e+00 0.000000000000e+00 -5.000000000000e-01
2.500000000000e+00 0.000000000000e+00 -5.000000000000e-01
3.750000000000e+00 0.000000000000e+00 -5.000000000000e-01
4.285868399170e+00 4.285868399170e+00 -5.000000000000e-01
3.685357665270e+00 3.685357665270e+00 -5.000000000000e-01
3.180390356390e+00 3.180390356390e+00 -5.000000000000e-01
5.000000000000e+00 1.250000000000e+00 -5.000000000000e-01
5.000000000000e+00 2.500000000000e+00 -5.000000000000e-01
5.000000000000e+00 3.750000000000e+00 -5.000000000000e-01
3.750000000000e+00 5.000000000000e+00 -5.000000000000e-01
2.500000000000e+00 5.000000000000e+00 -5.000000000000e-01
1.250000000000e+00 5.000000000000e+00 -5.000000000000e-01
9.560744151940e-01 2.677827143250e+00 -5.000000000000e-01
6.659597640160e-01 1.438876720610e+00 -5.000000000000e-01
2.309219871940e+00 9.522638293400e-01 -5.000000000000e-01
3.458157207860e+00 6.354750772000e-01 -5.000000000000e-01
4.043925584810e+00 2.322172856750e+00 -5.000000000000e-01
4.334040235980e+00 3.561123279390e+00 -5.000000000000e-01
2.318530875810e+00 4.048536535600e+00 -5.000000000000e-01
3.552396921680e+00 4.370927842320e+00 -5.000000000000e-01
2.500000000000e+00 2.500000000000e+00 -5.000000000000e-01
0.000000000000e+00 0.000000000000e+00 -1.000000000000e+00
5.000000000000e+00 0.000000000000e+00 -1.000000000000e+00
5.000000000000e+00 5.000000000000e+00 -1.000000000000e+00
0.000000000000e+00 5.000000000000e+00 -1.000000000000e+00
2.244234909000e+00 2.244234909000e+00 -1.000000000000e+00
2.755765091000e+00 2.244234909000e+00 -1.000000000000e+00
2.755765091000e+00 2.755765091000e+00 -1.000000000000e+00
2.244234909000e+00 2.755765091000e+00 -1.000000000000e+00
7.141316008320e-01 7.141316008320e-01 -1.000000000000e+00
1.314642334730e+00 1.314642334730e+00 -1.000000000000e+00
1.819609643610e+00 1.819609643610e+00 -1.000000000000e+00
1.819609643610e+00 3.180390356390e+00 -1.000000000000e+00
1.314642334740e+00 3.685357665260e+00 -1.000000000000e+00
7.141316008360e-01 4.285868399160e+00 -1.000000000000e+00
0.000000000000e+00 3.750000000000e+00 -1.000000000000e+00
0.000000000000e+00 2.500000000000e+00 -1.000000000000e+00
0.000000000000e+00 1.250000000000e+00 -1.000000000000e+00
4.285868399170e+00 7.141316008320e-01 -1.000000000000e+00
3.685357665270e+00 1.314642334730e+00 -1.000000000000e+00
3.180390356390e+00 1.819609643610e+00 -1.000000000000e+00
1.250000000000e+00 0.000000000000e+00 -1.000000000000e+00
2.500000000000e+00 0.000000000000e+00 -1.000000000000e+00
3.750000000000e+00 0.000000000000e+00 -1.000000000000e+00
4.285868399170e+00 4.285868399170e+00 -1.000000000000e+00
3.685357665270e+00 3.685357665270e+00 -1.000000000000e+00
3.180390356390e+00 3.180390356390e+00 -1.000000000000e+00
5.000000000000e+00 1.250000000000e+00 -1.000000000000e+00
5.000000000000e+00 2.500000000000e+00 -1.000000000000e+00
5.000000000000e+00 3.750000000000e+00 -1.000000000000e+00
3.750000000000e+00 5.000000000000e+00 -1.000000000000e+00
2.500000000000e+00 5.000000000000e+00 -1.000000000000e+00
1.250000000000e+00 5.000000000000e+00 -1.000000000000e+00
9.560744151940e-01 2.677827143250e+00 -1.000000000000e+00
6.659597640160e-01 1.438876720610e+00 -1.000000000000e+00
2.309219871940e+00 9.522638293400e-01 -1.000000000000e+00
3.458157207860e+00 6.354750772000e-01 -1.000000000000e+00
4.043925584810e+00 2.322172856750e+00 -1.000000000000e+00
4.334040235980e+00 3.561123279390e+00 -1.000000000000e+00
2.318530875810e+00 4.048536535600e+00 -1.000000000000e+00
3.552396921680e+00 4.370927842320e+00 -1.000000000000e+00
2.500000000000e+00 2.500000000000e+00 -1.000000000000e+00
0.000000000000e+00 0.000000000000e+00 -3.000000000000e+00
5.000000000000e+00 0.000000000000e+00 -3.000000000000e+00
5.000000000000e+00 5.000000000000e+00 -3.000000000000e+00
0.000000000000e+00 5.000000000000e+00 -3.000000000000e+00
2.244234909000e+00 2.244234909000e+00 -3.000000000000e+00
2.755765091000e+00 2.244234909000e+00 -3.000000000000e+00
2.755765091000e+00 2.755765091000e+00 -3.000000000000e+00
2.244234909000e+00 2.755765091000e+00 -3.000000000000e+00
7.141316008320e-01 7.141316008320e-01 -3.000000000000e+00
1.314642334730e+00 1.314642334730e+00 -3.000000000000e+00
1.819609643610e+00 1.819609643610e+00 -3.000000000000e+00
1.819609643610e+00 3.180390356390e+00 -3.000000000000e+00
1.314642334740e+00 3.685357665260e+00 -3.000000000000e+00
7.141316008360e-01 4.285868399160e+00 -3.000000000000e+00
0.000000000000e+00 3.750000000000e+00 -3.000000000000e+00
0.000000000000e+00 2.500000000000e+00 -3.000000000000e+00
0.000000000000e+00 1.250000000000e+00 -3.000000000000e+00
4.285868399170e+00 7.141316008320e-01 -3.000000000000e+00
3.685357665270e+00 1.314642334730e+00 -3.000000000000e+00
3.180390356390e+00 1.819609643610e+00 -3.000000000000e+00
1.250000000000e+00 0.000000000000e+00 -3.000000000000e+00
2.500000000000e+00 0.000000000000e+00 -3.000000000000e+00
3.750000000000e+00 0.000000000000e+00 -3.000000000000e+00
4.285868399170e+00 4.285868399170e+00 -3.000000000000e+00
3.685357665270e+00 3.685357665270e+00 -3.000000000000e+00
3.180390356390e+00 3.180390356390e+00 -3.000000000000e+00
5.000000000000e+00 1.250000000000e+00 -3.000000000000e+00
5.000000000000e+00 2.500000000000e+00 -3.000000000000e+00
5.000000000000e+00 3.750000000000e+00 -3.000000000000e+00
3.750000000000e+00 5.000000000000e+00 -3.000000000000e+00
2.500000000000e+00 5.000000000000e+00 -3.000000000000e+00
1.250000000000e+00 5.000000000000e+00 -3.000000000000e+00
9.560744151940e-01 2.677827143250e+00 -3.000000000000e+00
6.659597640160e-01 1.438876720610e+00 -3.000000000000e+00
2.309219871940e+00 9.522638293400e-01 -3.000000000000e+00
3.458157207860e+00 6.354750772000e-01 -3.000000000000e+00
4.043925584810e+00 2.322172856750e+00 -3.000000000000e+00
4.334040235980e+00 3.561123279390e+00 -3.000000000000e+00
2.318530875810e+00 4.048536535600e+00 -3.000000000000e+00
3.552396921680e+00 4.370927842320e+00 -3.000000000000e+00
2.500000000000e+00 2.500000000000e+00 -3.000000000000e+00
0.000000000000e+00 0.000000000000e+00 -5.000000000000e+00
5.000000000000e+00 0.000000000000e+00 -5.000000000000e+00
5.000000000000e+00 5.000000000000e+00 -5.000000000000e+00
0.000000000000e+00 5.000000000000e+00 -5.000000000000e+00
2.244234909000e+00 2.244234909000e+00 -5.000000000000e+00
[...]
POINT_DATA 1394
SCALARS TEMPERATURE1 double 1
LOOKUP_TABLE default
1.000000000000e+01
1.000000000000e+01
1.000000000000e+01
1.000000000000e+01
1.000000000000e+01
1.000000000000e+01
1.000000000000e+01
1.000000000000e+01
1.000000000000e+01
1.000000000000e+01
1.000000000000e+01
1.000000000000e+01
1.000000000000e+01
1.000000000000e+01
1.000000000000e+01
1.000000000000e+01
1.000000000000e+01
1.000000000000e+01
1.000000000000e+01
1.000000000000e+01
1.000000000000e+01
1.000000000000e+01
1.000000000000e+01
1.000000000000e+01
1.000000000000e+01
1.000000000000e+01
1.000000000000e+01
1.000000000000e+01
1.000000000000e+01
1.000000000000e+01
1.000000000000e+01
1.000000000000e+01
1.000000000000e+01
1.000000000000e+01
1.000000000000e+01
1.000000000000e+01
1.000000000000e+01
1.000000000000e+01
1.000000000000e+01
1.000000000000e+01
1.000000000000e+01
1.928596149758e+01
1.928492504771e+01
1.927763122725e+01
1.928124352640e+01
2.316531284226e+01
2.318938805714e+01
2.327636815427e+01
2.305211918907e+01
1.955910259437e+01
2.042765220852e+01
2.197278940602e+01
2.201722793363e+01
2.038776900044e+01
1.955795955558e+01
1.949751465770e+01
1.982169849183e+01
1.958117891749e+01
1.955876305973e+01
2.042400794504e+01
2.196704001564e+01
1.950008619180e+01
1.982348032190e+01
1.957311570113e+01
1.954539768767e+01
2.046803983720e+01
2.192221241883e+01
1.949650971904e+01
1.982223056038e+01
1.958318278883e+01
1.958113201368e+01
1.982282055364e+01
1.949759399412e+01
2.039848096939e+01
1.983238207351e+01
2.039415896149e+01
1.983955175106e+01
2.039653507753e+01
1.984411625174e+01
2.038975708142e+01
1.982189874833e+01
2.124876849897e+01
2.902202403713e+01
2.902004002966e+01
2.900613039330e+01
2.901247811150e+01
4.007147986094e+01
4.004516881319e+01
4.000426286332e+01
4.011952268900e+01
2.955928838175e+01
3.130508665999e+01
3.472817303138e+01
3.479403599216e+01
3.121737279119e+01
2.955974320392e+01
2.943317405152e+01
3.006051284832e+01
2.959666890432e+01
2.955905383597e+01
3.129725668839e+01
3.470593078848e+01
2.943815629968e+01
3.006444751431e+01
2.958059681412e+01
2.952714909463e+01
3.139421645747e+01
3.465473082441e+01
2.943162310575e+01
3.006159664668e+01
2.960082579298e+01
2.959685760000e+01
3.006288703537e+01
2.943384481708e+01
3.118306403885e+01
3.009393108885e+01
3.117391479653e+01
3.010609718533e+01
3.117660518480e+01
3.011826504696e+01
3.116289947303e+01
3.007362510140e+01
5.389159510330e+01
3.417957696848e+01
3.417704226005e+01
3.416392329456e+01
3.416865910253e+01
4.422028232503e+01
4.421250082982e+01
4.420570822528e+01
4.423549903334e+01
3.475370206931e+01
3.653520137377e+01
3.978353159762e+01
3.985117515477e+01
3.645246436053e+01
3.475378605574e+01
3.463274930939e+01
3.530716426627e+01
3.479926685377e+01
3.475303135777e+01
3.652821916693e+01
3.976769013596e+01
3.463796530481e+01
3.531086994202e+01
3.478247483552e+01
3.472247779379e+01
3.662103017824e+01
3.971426402472e+01
3.463098436010e+01
3.530850161241e+01
3.480345779453e+01
3.479936568760e+01
3.530970048264e+01
3.463344118883e+01
3.646977972365e+01
3.532049001000e+01
3.645985380495e+01
3.533586301609e+01
3.646285500040e+01
3.534492804663e+01
3.644963164341e+01
3.529942294047e+01
5.491776609449e+01
3.685412742347e+01
3.685156641843e+01
3.684008261718e+01
3.684464450766e+01
4.571307279124e+01
4.570575440887e+01
4.569820378043e+01
4.572856159020e+01
3.737059985168e+01
3.894700400327e+01
4.180236505910e+01
4.186175458036e+01
3.887425424943e+01
3.737125178546e+01
3.726775332007e+01
3.787348477041e+01
3.741374222913e+01
3.736975639193e+01
3.894094008646e+01
4.178844440830e+01
3.727203009541e+01
3.787668177700e+01
3.739871824287e+01
3.734259937189e+01
3.902305930524e+01
4.174203799050e+01
3.726572900286e+01
3.787474793382e+01
3.741735367994e+01
3.741375159769e+01
3.787578257953e+01
3.726838765516e+01
3.889700800867e+01
3.787773040013e+01
3.888815936729e+01
3.789205980502e+01
3.889119374358e+01
3.789932888494e+01
3.887947741791e+01
3.785918007008e+01
5.543691677815e+01
3.802733471626e+01
3.802493378572e+01
3.801395413932e+01
3.801865078241e+01
4.641909616655e+01
4.641275409027e+01
4.640672231128e+01
4.643269715689e+01
3.851240978055e+01
4.000270150329e+01
4.271357074416e+01
4.277011135704e+01
3.993367347579e+01
3.851291859019e+01
3.841409923647e+01
3.898330413932e+01
3.855255459884e+01
3.851165459310e+01
3.999687910235e+01
4.270026505840e+01
3.841809363520e+01
3.898630653031e+01
3.853836300791e+01
3.848613662775e+01
4.007472816885e+01
4.265584946390e+01
3.841217684167e+01
3.898448536458e+01
3.855599619119e+01
3.855259527969e+01
3.898550942401e+01
3.841472466749e+01
3.995168421559e+01
3.898968869134e+01
3.994328648640e+01
3.900293362797e+01
3.994607385155e+01
3.901018790161e+01
3.993505339341e+01
3.897221750674e+01
5.562176277886e+01
3.848290562979e+01
3.848057445513e+01
3.846987457648e+01
3.847440908589e+01
4.666912667554e+01
4.666312703429e+01
4.665749984632e+01
4.668221288049e+01
3.895625092838e+01
4.041125901742e+01
4.305724044779e+01
4.311246032087e+01
4.034389882401e+01
3.895672573076e+01
3.886010552364e+01
3.941560497925e+01
3.899533684060e+01
3.895552127922e+01
4.040557532514e+01
4.304428347927e+01
3.886401775671e+01
3.941853238974e+01
3.898148339624e+01
3.893063218408e+01
4.048154263381e+01
4.300088160752e+01
3.885824388495e+01
3.941675145115e+01
3.899870695026e+01
3.899538763900e+01
3.941775874507e+01
3.886071501876e+01
4.036145791178e+01
3.942209140194e+01
4.035325300624e+01
3.943500162634e+01
4.035595898314e+01
3.944210629284e+01
4.034521110722e+01
3.940503079533e+01
5.566292180907e+01
3.863318048657e+01
3.863087683304e+01
3.862026264319e+01
3.862478379863e+01
4.673938812583e+01
4.673349101344e+01
4.672800597622e+01
4.675225548691e+01
3.910155250619e+01
4.054198990862e+01
4.316253680604e+01
4.321723458250e+01
4.047527248906e+01
3.910200764125e+01
3.900629457149e+01
3.955597606847e+01
3.914020790730e+01
3.910083566510e+01
4.053635677018e+01
4.314969368888e+01
3.901017083717e+01
3.955887918675e+01
3.912649762245e+01
3.907619728283e+01
4.061157965736e+01
4.310667436990e+01
3.900445887369e+01
3.955711329599e+01
3.914354111059e+01
3.914025435359e+01
3.955810763749e+01
3.900689890859e+01
4.049236528843e+01
3.956256438499e+01
4.048424584492e+01
3.957532621775e+01
4.048691801764e+01
3.958238196364e+01
4.047627555484e+01
3.954567569960e+01
5.565213963215e+01
3.837665594899e+01
3.837436874188e+01
3.836376921520e+01
3.836824567050e+01
4.647390269080e+01
4.646778920409e+01
4.646189047753e+01
4.648712673071e+01
3.884388970404e+01
4.028083902293e+01
4.289646478983e+01
4.295098572395e+01
4.021422906001e+01
3.884434190919e+01
3.874884516588e+01
3.929713540250e+01
3.888241224462e+01
3.884318040971e+01
4.027522121125e+01
4.288359619741e+01
3.875273065698e+01
3.930004515383e+01
3.886874497266e+01
3.881855445225e+01
4.035029286788e+01
4.284073155255e+01
3.874703383932e+01
3.929827073890e+01
3.888573153576e+01
3.888245015956e+01
3.929925185344e+01
3.874944319011e+01
4.023105952164e+01
3.930374573767e+01
4.022297780696e+01
3.931647623574e+01
4.022564409232e+01
3.932350613897e+01
4.021500561813e+01
3.928688633903e+01
5.534338199073e+01
3.807932923477e+01
3.807704679768e+01
3.806642428001e+01
3.807087504067e+01
4.619884300965e+01
4.619248452133e+01
4.618617528319e+01
4.621243288370e+01
3.854733194062e+01
3.998652651954e+01
4.260739113757e+01
4.266195417662e+01
3.991976737866e+01
3.854778732784e+01
3.845214157347e+01
3.900127909872e+01
3.858588959671e+01
3.854662541696e+01
3.998090168370e+01
4.259445388535e+01
3.845604791269e+01
3.900420427911e+01
3.857220857046e+01
3.852191846976e+01
4.005611867264e+01
4.255157653296e+01
3.845034255347e+01
3.900241649732e+01
3.858920937713e+01
3.858592090372e+01
3.900339037371e+01
3.845273617618e+01
3.993646835355e+01
3.900789968351e+01
3.992838925771e+01
3.902065280407e+01
3.993106186607e+01
3.902768243399e+01
3.992038785306e+01
3.899100402294e+01
5.506914649187e+01
3.785862024688e+01
3.785634633068e+01
3.784572340056e+01
3.785014688893e+01
4.598132596754e+01
4.597479087217e+01
4.596817302269e+01
4.599517930807e+01
3.832636820411e+01
3.976475402035e+01
4.238514243781e+01
4.243964262214e+01
3.969799441213e+01
3.832682378418e+01
3.823122428339e+01
3.878002117173e+01
3.836487862060e+01
3.832566572318e+01
3.975913334253e+01
4.237217249620e+01
3.823514074963e+01
3.878295373331e+01
3.835121175587e+01
3.830093907158e+01
3.983433113654e+01
4.232935831010e+01
3.822943922758e+01
3.878115815904e+01
3.836819272526e+01
3.836490446975e+01
3.878212439597e+01
3.823181509924e+01
3.971453739614e+01
3.878665617334e+01
3.970647523402e+01
3.879940236502e+01
3.970914728714e+01
3.880642122743e+01
3.969846412107e+01
3.876976205688e+01
5.483510511662e+01
3.768164394411e+01
3.767937795726e+01
3.766875853722e+01
3.767315861274e+01
4.580408587055e+01
4.579740780404e+01
4.579053926448e+01
4.581814940878e+01
3.814900097236e+01
3.958618865037e+01
4.220525576834e+01
4.225968499238e+01
3.951945247393e+01
3.814945650456e+01
3.805392781733e+01
3.860223179905e+01
3.818745628619e+01
3.814830215364e+01
3.958057319646e+01
4.219226285633e+01
3.805785096096e+01
3.860516923086e+01
3.817380613416e+01
3.812356868975e+01
3.965572832416e+01
4.214951531747e+01
3.805215478117e+01
3.860336789931e+01
3.819076462610e+01
3.818747781922e+01
3.860432770596e+01
3.805451533687e+01
3.953584850891e+01
3.860888250344e+01
3.952780318202e+01
3.862161739087e+01
3.953047366572e+01
3.862862587562e+01
3.951978704698e+01
3.859199611789e+01
5.464125898194e+01
3.755040559114e+01
3.754814730312e+01
3.753753692291e+01
3.754191671782e+01
4.566775329374e+01
4.566096958126e+01
4.565391264923e+01
4.568196948145e+01
3.801716334761e+01
3.945254048081e+01
4.206901646128e+01
4.212335825513e+01
3.938586251220e+01
3.801761829561e+01
3.792219984835e+01
3.846977467485e+01
3.805554992037e+01
3.801646794551e+01
3.944693227421e+01
4.205601293304e+01
3.792612570666e+01
3.847271403636e+01
3.804192116625e+01
3.799174462815e+01
3.952200899027e+01
4.201334185989e+01
3.792043727449e+01
3.847090929070e+01
3.805885188235e+01
3.805556824085e+01
3.847186367713e+01
3.792278448301e+01
3.940212319166e+01
3.847644105314e+01
3.939409581981e+01
3.848915841619e+01
3.939676323216e+01
3.849615568982e+01
3.938608058334e+01
3.845957116408e+01
5.448654391039e+01
3.746271880743e+01
3.746046771183e+01
3.744987079969e+01
3.745423385071e+01
4.557102760778e+01
4.556417326149e+01
4.555698716539e+01
4.558534199163e+01
3.792871948327e+01
3.936181900332e+01
4.197470413116e+01
4.202894727325e+01
3.929522698994e+01
3.792917361152e+01
3.783389658826e+01
3.838056441137e+01
3.796702849283e+01
3.792802712060e+01
3.935621952529e+01
4.196170061162e+01
3.783782155710e+01
3.838350311744e+01
3.795342443860e+01
3.790332803235e+01
3.943118999971e+01
4.191911185089e+01
3.783214266330e+01
3.838169710204e+01
3.797032372100e+01
3.796704463291e+01
3.838264709714e+01
3.783447878208e+01
3.931136643730e+01
3.838724431241e+01
3.930335742903e+01
3.839993948893e+01
3.930602073567e+01
3.840692509775e+01
3.929534823240e+01
3.837039796337e+01
5.437045441681e+01
3.741175775733e+01
3.740951261639e+01
3.739892988937e+01
3.740328015053e+01
4.551028263021e+01
4.550338716833e+01
4.549612122335e+01
4.552465502486e+01
3.787702678522e+01
3.930794805548e+01
4.191725437617e+01
4.197140767316e+01
3.924144413387e+01
3.787747983595e+01
3.778233596910e+01
3.832813465053e+01
3.791526294089e+01
3.787633691720e+01
3.930235673989e+01
4.190425698992e+01
3.778625830068e+01
3.833107122924e+01
3.790168156527e+01
3.785166645742e+01
3.937722205745e+01
4.186174181886e+01
3.778058851995e+01
3.832926532210e+01
3.791855258205e+01
3.791527809563e+01
3.833021239920e+01
3.778291638183e+01
3.925748587885e+01
3.833483079828e+01
3.924949241030e+01
3.834750409421e+01
3.925215131013e+01
3.835448033321e+01
3.924149103187e+01
3.831800821722e+01
5.429291404724e+01
3.742473175285e+01
3.742249467209e+01
3.741194198954e+01
3.741628124374e+01
4.549974921742e+01
4.549286258709e+01
4.548560006412e+01
4.551408919360e+01
3.788853357741e+01
3.931504726951e+01
4.191666292618e+01
4.197065239214e+01
3.924873794469e+01
3.788898501888e+01
3.779412491006e+01
3.833819667821e+01
3.792664311444e+01
3.788784660981e+01
3.930947190184e+01
4.190369543157e+01
3.779803554338e+01
3.834112521945e+01
3.791310449413e+01
3.786324872695e+01
3.938411480675e+01
4.186130554226e+01
3.779238371405e+01
3.833932377485e+01
3.792992226296e+01
3.792665789694e+01
3.834026755978e+01
3.779470329931e+01
3.926465726764e+01
3.834489878266e+01
3.925668995278e+01
3.835752938286e+01
3.925934082856e+01
3.836448801038e+01
3.924871157266e+01
3.832812816929e+01
5.425332427939e+01
3.745215081524e+01
3.744992129796e+01
3.743939056120e+01
3.744370216889e+01
4.551307926493e+01
4.550624293705e+01
4.549899842061e+01
4.552744796544e+01
3.791522212076e+01
3.933977383885e+01
4.193721516815e+01
4.199111927651e+01
3.927357745343e+01
3.791566075598e+01
3.782086980405e+01
3.836412191065e+01
3.795323357443e+01
3.791453979029e+01
3.933420859920e+01
4.192429054306e+01
3.782478249292e+01
3.836704521611e+01
3.793971486284e+01
3.788998751015e+01
3.940872383865e+01
4.188197436036e+01
3.781914004173e+01
3.836524564326e+01
3.795651254143e+01
3.795325196202e+01
3.836619009960e+01
3.782144761518e+01
3.928952200746e+01
3.837091628703e+01
3.928156235405e+01
3.838352333718e+01
3.928419945986e+01
3.839047872397e+01
3.927359078003e+01
3.835416602734e+01
5.425666851815e+01
3.743144027627e+01
3.742919931062e+01
3.741859288145e+01
3.742306116372e+01
4.550546115543e+01
4.549851707523e+01
4.549139027380e+01
4.551944655089e+01
3.789428554094e+01
3.931837791271e+01
4.191928448780e+01
4.197326835337e+01
3.925205355924e+01
3.789473940733e+01
3.780010494240e+01
3.834299233768e+01
3.793239056702e+01
3.789359916877e+01
3.931279518501e+01
4.190623695798e+01
3.780399597833e+01
3.834593158553e+01
3.791888125556e+01
3.786900765809e+01
3.938741436014e+01
4.186378124473e+01
3.779835648960e+01
3.834412931942e+01
3.793564387796e+01
3.793238291663e+01
3.834505626556e+01
3.780068354971e+01
3.926727651253e+01
3.834969997030e+01
3.925934268381e+01
3.836229356599e+01
3.926200600491e+01
3.836926041309e+01
3.925136840197e+01
3.833296473844e+01
5.424355698947e+01
3.715031462050e+01
3.714806601047e+01
3.713753273117e+01
3.714133459500e+01
4.529056301951e+01
4.528352109222e+01
4.527500260584e+01
4.530702320602e+01
3.762371418388e+01
3.907071457544e+01
4.169067814927e+01
4.174488724260e+01
3.900394077673e+01
3.762416246717e+01
3.752862644124e+01
3.808395774376e+01
3.766281094800e+01
3.762300779048e+01
3.906518344761e+01
4.167794391861e+01
3.753272735506e+01
3.808695702018e+01
3.764908022695e+01
3.759798158347e+01
3.914039202040e+01
4.163568231546e+01
3.752696864577e+01
3.808511469851e+01
3.766612323773e+01
3.766280358592e+01
3.808601972605e+01
3.752918722911e+01
3.902464638397e+01
3.808878008341e+01
3.901657260427e+01
3.810190541194e+01
3.901925534902e+01
3.810855702266e+01
3.900846271530e+01
3.807166771164e+01
5.417950248801e+01
3.612390947088e+01
3.612212692130e+01
3.611034352593e+01
3.611520649649e+01
4.486179717774e+01
4.485538553679e+01
4.485354371515e+01
4.486787167310e+01
3.659590141876e+01
3.811041187740e+01
4.094914461491e+01
4.100851782039e+01
3.803799818195e+01
3.659537242162e+01
3.648698137631e+01
3.704198018958e+01
3.663038457318e+01
3.659565159808e+01
3.810404993374e+01
4.093411028526e+01
3.649156611477e+01
3.704524800827e+01
3.661634249235e+01
3.656967058401e+01
3.818441999917e+01
4.088573077940e+01
3.648582555569e+01
3.704300465818e+01
3.663403027719e+01
3.663054600643e+01
3.704410213247e+01
3.648756300532e+01
3.803201329467e+01
3.706629048960e+01
3.802376600300e+01
3.707781952493e+01
3.802598738143e+01
3.708725377733e+01
3.801461978705e+01
3.704845499244e+01
5.393681478967e+01
3.403666674335e+01
3.403552120789e+01
3.402741415431e+01
3.403168108584e+01
4.111169437081e+01
4.108077255063e+01
4.101403948465e+01
4.119335430929e+01
3.433819298296e+01
3.533398830208e+01
3.738289644254e+01
3.741637465527e+01
3.528148407149e+01
3.433911627724e+01
3.426569748238e+01
3.461510383094e+01
3.435797176881e+01
3.433815068852e+01
3.532923822357e+01
3.736719057818e+01
3.426834001573e+01
3.461745094611e+01
3.434884404128e+01
3.431876517871e+01
3.538715579955e+01
3.734491567459e+01
3.426476756767e+01
3.461574210969e+01
3.436030653169e+01
3.435808640475e+01
3.461649541879e+01
3.426619921376e+01
3.524414169624e+01
3.463796157521e+01
3.523890345156e+01
3.464415314705e+01
3.524011631578e+01
3.465208322482e+01
3.523217436592e+01
3.462665096277e+01
5.234004661319e+01
3.342507213011e+01
3.342404142766e+01
3.341877438543e+01
3.342090109201e+01
3.642278536267e+01
3.644075239883e+01
3.650322626997e+01
3.634304882374e+01
3.365184384282e+01
3.434442771392e+01
3.552665724403e+01
3.556030014301e+01
3.431408876724e+01
3.365127779996e+01
3.360577224258e+01
3.387467871480e+01
3.367150394102e+01
3.365140093673e+01
3.434181873416e+01
3.552311360582e+01
3.360775059426e+01
3.387597924352e+01
3.366492379906e+01
3.364083635229e+01
3.437591798543e+01
3.549028644678e+01
3.360480294675e+01
3.387513681665e+01
3.367312891070e+01
3.367149870342e+01
3.387561871290e+01
3.360586127690e+01
3.433531733947e+01
3.387630598636e+01
3.433167149902e+01
3.388286656125e+01
3.433363188773e+01
3.388557278160e+01
3.432840655218e+01
3.386790967078e+01
3.475077066732e+01
3.282060654960e+01
3.281956766986e+01
3.281756154658e+01
3.281692362609e+01
3.405118599973e+01
3.406512268344e+01
3.409036213060e+01
3.403020176828e+01
3.297645063552e+01
3.338622154004e+01
3.390931467208e+01
3.392457694217e+01
3.337340194621e+01
3.297612291852e+01
3.295558968494e+01
3.314215752498e+01
3.299357259686e+01
3.297591567808e+01
3.338558640205e+01
3.391189979828e+01
3.295695465866e+01
3.314274132975e+01
3.298937227430e+01
3.297064646118e+01
3.340130414673e+01
3.389968492131e+01
3.295507844796e+01
3.314268198223e+01
3.299450815309e+01
3.299351418428e+01
3.314284005318e+01
3.295576415253e+01
3.342541327778e+01
3.312630534887e+01
3.342257989404e+01
3.313255226179e+01
3.342341546942e+01
3.313154670714e+01
3.342108143907e+01
3.312111055831e+01
3.446995839578e+01
3.225207721342e+01
3.225120719713e+01
3.225093070041e+01
3.224938902616e+01
3.288316803457e+01
3.288624326377e+01
3.289111678752e+01
3.288064834234e+01
3.234990955812e+01
3.256446331544e+01
3.279123206496e+01
3.279719720701e+01
3.255891976611e+01
3.235071833394e+01
3.234527780839e+01
3.246013559567e+01
3.236250441345e+01
3.234927575575e+01
3.256449395304e+01
3.279291378483e+01
3.234579634619e+01
3.246032840814e+01
3.236009625379e+01
3.234592784958e+01
3.257225947243e+01
3.278975169129e+01
3.234457053014e+01
3.246041901340e+01
3.236295372630e+01
3.236244112072e+01
3.246045997412e+01
3.234531071369e+01
3.260221557863e+01
3.243921302304e+01
3.260072119900e+01
3.244388114309e+01
3.260170965386e+01
3.244172138959e+01
3.260036058178e+01
3.243640259613e+01
3.283330090488e+01
3.174250901143e+01
3.174180821133e+01
3.174163002928e+01
3.174143995474e+01
3.202707106715e+01
3.202863249481e+01
3.203189774195e+01
3.202426711982e+01
3.179693812031e+01
3.189904196825e+01
3.199721922376e+01
3.200007878968e+01
3.189651939448e+01
3.179786217950e+01
3.179895827273e+01
3.186170166718e+01
3.180581445376e+01
3.179640613688e+01
3.189911162631e+01
3.199789276028e+01
3.179889339419e+01
3.186177883384e+01
3.180453556631e+01
3.179457478977e+01
3.190300636998e+01
3.199639847468e+01
3.179819209800e+01
3.186194328206e+01
3.180586607382e+01
3.180564537303e+01
3.186188158065e+01
3.179897787975e+01
3.192271508504e+01
3.184444131196e+01
3.192202212252e+01
3.184734622760e+01
3.192292886970e+01
3.184559666780e+01
3.192217385884e+01
3.184318621417e+01
3.204136032706e+01
3.039604156487e+01
3.039593823953e+01
3.039591162058e+01
3.039632018277e+01
3.038831001127e+01
3.038821643814e+01
3.038799300608e+01
3.038861309991e+01
3.039610680672e+01
3.039365261625e+01
3.038969731911e+01
3.038964908363e+01
3.039376814493e+01
3.039623937320e+01
3.039701558435e+01
3.039699811200e+01
3.039661116191e+01
3.039604667647e+01
3.039364725745e+01
3.038967703700e+01
3.039685213836e+01
3.039694601842e+01
3.039658414624e+01
3.039615555446e+01