# vtk DataFile Version 3.0
Unstructured Grid from OpenGeoSys
ASCII
DATASET UNSTRUCTURED_GRID
FIELD TimesAndCycles 2
TIME 1 1 double
3.600000000000e+03
CYLCE 1 1 long
1
POINTS 1394 double
0.000000000000e+00 0.000000000000e+00 0.000000000000e+00
5.000000000000e+00 0.000000000000e+00 0.000000000000e+00
5.000000000000e+00 5.000000000000e+00 0.000000000000e+00
0.000000000000e+00 5.000000000000e+00 0.000000000000e+00
2.244234909000e+00 2.244234909000e+00 0.000000000000e+00
2.755765091000e+00 2.244234909000e+00 0.000000000000e+00
2.755765091000e+00 2.755765091000e+00 0.000000000000e+00
2.244234909000e+00 2.755765091000e+00 0.000000000000e+00
7.141316008320e-01 7.141316008320e-01 0.000000000000e+00
1.314642334730e+00 1.314642334730e+00 0.000000000000e+00
1.819609643610e+00 1.819609643610e+00 0.000000000000e+00
1.819609643610e+00 3.180390356390e+00 0.000000000000e+00
1.314642334740e+00 3.685357665260e+00 0.000000000000e+00
7.141316008360e-01 4.285868399160e+00 0.000000000000e+00
0.000000000000e+00 3.750000000000e+00 0.000000000000e+00
0.000000000000e+00 2.500000000000e+00 0.000000000000e+00
0.000000000000e+00 1.250000000000e+00 0.000000000000e+00
4.285868399170e+00 7.141316008320e-01 0.000000000000e+00
3.685357665270e+00 1.314642334730e+00 0.000000000000e+00
3.180390356390e+00 1.819609643610e+00 0.000000000000e+00
1.250000000000e+00 0.000000000000e+00 0.000000000000e+00
2.500000000000e+00 0.000000000000e+00 0.000000000000e+00
3.750000000000e+00 0.000000000000e+00 0.000000000000e+00
4.285868399170e+00 4.285868399170e+00 0.000000000000e+00
3.685357665270e+00 3.685357665270e+00 0.000000000000e+00
3.180390356390e+00 3.180390356390e+00 0.000000000000e+00
5.000000000000e+00 1.250000000000e+00 0.000000000000e+00
5.000000000000e+00 2.500000000000e+00 0.000000000000e+00
5.000000000000e+00 3.750000000000e+00 0.000000000000e+00
3.750000000000e+00 5.000000000000e+00 0.000000000000e+00
2.500000000000e+00 5.000000000000e+00 0.000000000000e+00
1.250000000000e+00 5.000000000000e+00 0.000000000000e+00
9.560744151940e-01 2.677827143250e+00 0.000000000000e+00
6.659597640160e-01 1.438876720610e+00 0.000000000000e+00
2.309219871940e+00 9.522638293400e-01 0.000000000000e+00
3.458157207860e+00 6.354750772000e-01 0.000000000000e+00
4.043925584810e+00 2.322172856750e+00 0.000000000000e+00
4.334040235980e+00 3.561123279390e+00 0.000000000000e+00
2.318530875810e+00 4.048536535600e+00 0.000000000000e+00
3.552396921680e+00 4.370927842320e+00 0.000000000000e+00
2.500000000000e+00 2.500000000000e+00 0.000000000000e+00
0.000000000000e+00 0.000000000000e+00 -5.000000000000e-01
5.000000000000e+00 0.000000000000e+00 -5.000000000000e-01
5.000000000000e+00 5.000000000000e+00 -5.000000000000e-01
0.000000000000e+00 5.000000000000e+00 -5.000000000000e-01
2.244234909000e+00 2.244234909000e+00 -5.000000000000e-01
2.755765091000e+00 2.244234909000e+00 -5.000000000000e-01
2.755765091000e+00 2.755765091000e+00 -5.000000000000e-01
2.244234909000e+00 2.755765091000e+00 -5.000000000000e-01
7.141316008320e-01 7.141316008320e-01 -5.000000000000e-01
1.314642334730e+00 1.314642334730e+00 -5.000000000000e-01
1.819609643610e+00 1.819609643610e+00 -5.000000000000e-01
1.819609643610e+00 3.180390356390e+00 -5.000000000000e-01
1.314642334740e+00 3.685357665260e+00 -5.000000000000e-01
7.141316008360e-01 4.285868399160e+00 -5.000000000000e-01
0.000000000000e+00 3.750000000000e+00 -5.000000000000e-01
0.000000000000e+00 2.500000000000e+00 -5.000000000000e-01
0.000000000000e+00 1.250000000000e+00 -5.000000000000e-01
4.285868399170e+00 7.141316008320e-01 -5.000000000000e-01
3.685357665270e+00 1.314642334730e+00 -5.000000000000e-01
3.180390356390e+00 1.819609643610e+00 -5.000000000000e-01
1.250000000000e+00 0.000000000000e+00 -5.000000000000e-01
2.500000000000e+00 0.000000000000e+00 -5.000000000000e-01
3.750000000000e+00 0.000000000000e+00 -5.000000000000e-01
4.285868399170e+00 4.285868399170e+00 -5.000000000000e-01
3.685357665270e+00 3.685357665270e+00 -5.000000000000e-01
3.180390356390e+00 3.180390356390e+00 -5.000000000000e-01
5.000000000000e+00 1.250000000000e+00 -5.000000000000e-01
5.000000000000e+00 2.500000000000e+00 -5.000000000000e-01
5.000000000000e+00 3.750000000000e+00 -5.000000000000e-01
3.750000000000e+00 5.000000000000e+00 -5.000000000000e-01
2.500000000000e+00 5.000000000000e+00 -5.000000000000e-01
1.250000000000e+00 5.000000000000e+00 -5.000000000000e-01
9.560744151940e-01 2.677827143250e+00 -5.000000000000e-01
6.659597640160e-01 1.438876720610e+00 -5.000000000000e-01
2.309219871940e+00 9.522638293400e-01 -5.000000000000e-01
3.458157207860e+00 6.354750772000e-01 -5.000000000000e-01
4.043925584810e+00 2.322172856750e+00 -5.000000000000e-01
4.334040235980e+00 3.561123279390e+00 -5.000000000000e-01
2.318530875810e+00 4.048536535600e+00 -5.000000000000e-01
3.552396921680e+00 4.370927842320e+00 -5.000000000000e-01
2.500000000000e+00 2.500000000000e+00 -5.000000000000e-01
0.000000000000e+00 0.000000000000e+00 -1.000000000000e+00
5.000000000000e+00 0.000000000000e+00 -1.000000000000e+00
5.000000000000e+00 5.000000000000e+00 -1.000000000000e+00
0.000000000000e+00 5.000000000000e+00 -1.000000000000e+00
2.244234909000e+00 2.244234909000e+00 -1.000000000000e+00
2.755765091000e+00 2.244234909000e+00 -1.000000000000e+00
2.755765091000e+00 2.755765091000e+00 -1.000000000000e+00
2.244234909000e+00 2.755765091000e+00 -1.000000000000e+00
7.141316008320e-01 7.141316008320e-01 -1.000000000000e+00
1.314642334730e+00 1.314642334730e+00 -1.000000000000e+00
1.819609643610e+00 1.819609643610e+00 -1.000000000000e+00
1.819609643610e+00 3.180390356390e+00 -1.000000000000e+00
1.314642334740e+00 3.685357665260e+00 -1.000000000000e+00
7.141316008360e-01 4.285868399160e+00 -1.000000000000e+00
0.000000000000e+00 3.750000000000e+00 -1.000000000000e+00
0.000000000000e+00 2.500000000000e+00 -1.000000000000e+00
0.000000000000e+00 1.250000000000e+00 -1.000000000000e+00
4.285868399170e+00 7.141316008320e-01 -1.000000000000e+00
3.685357665270e+00 1.314642334730e+00 -1.000000000000e+00
3.180390356390e+00 1.819609643610e+00 -1.000000000000e+00
1.250000000000e+00 0.000000000000e+00 -1.000000000000e+00
2.500000000000e+00 0.000000000000e+00 -1.000000000000e+00
3.750000000000e+00 0.000000000000e+00 -1.000000000000e+00
4.285868399170e+00 4.285868399170e+00 -1.000000000000e+00
3.685357665270e+00 3.685357665270e+00 -1.000000000000e+00
3.180390356390e+00 3.180390356390e+00 -1.000000000000e+00
5.000000000000e+00 1.250000000000e+00 -1.000000000000e+00
5.000000000000e+00 2.500000000000e+00 -1.000000000000e+00
5.000000000000e+00 3.750000000000e+00 -1.000000000000e+00
3.750000000000e+00 5.000000000000e+00 -1.000000000000e+00
2.500000000000e+00 5.000000000000e+00 -1.000000000000e+00
1.250000000000e+00 5.000000000000e+00 -1.000000000000e+00
9.560744151940e-01 2.677827143250e+00 -1.000000000000e+00
6.659597640160e-01 1.438876720610e+00 -1.000000000000e+00
2.309219871940e+00 9.522638293400e-01 -1.000000000000e+00
3.458157207860e+00 6.354750772000e-01 -1.000000000000e+00
4.043925584810e+00 2.322172856750e+00 -1.000000000000e+00
4.334040235980e+00 3.561123279390e+00 -1.000000000000e+00
2.318530875810e+00 4.048536535600e+00 -1.000000000000e+00
3.552396921680e+00 4.370927842320e+00 -1.000000000000e+00
2.500000000000e+00 2.500000000000e+00 -1.000000000000e+00
0.000000000000e+00 0.000000000000e+00 -3.000000000000e+00
5.000000000000e+00 0.000000000000e+00 -3.000000000000e+00
5.000000000000e+00 5.000000000000e+00 -3.000000000000e+00
0.000000000000e+00 5.000000000000e+00 -3.000000000000e+00
2.244234909000e+00 2.244234909000e+00 -3.000000000000e+00
2.755765091000e+00 2.244234909000e+00 -3.000000000000e+00
2.755765091000e+00 2.755765091000e+00 -3.000000000000e+00
2.244234909000e+00 2.755765091000e+00 -3.000000000000e+00
7.141316008320e-01 7.141316008320e-01 -3.000000000000e+00
1.314642334730e+00 1.314642334730e+00 -3.000000000000e+00
1.819609643610e+00 1.819609643610e+00 -3.000000000000e+00
1.819609643610e+00 3.180390356390e+00 -3.000000000000e+00
1.314642334740e+00 3.685357665260e+00 -3.000000000000e+00
7.141316008360e-01 4.285868399160e+00 -3.000000000000e+00
0.000000000000e+00 3.750000000000e+00 -3.000000000000e+00
0.000000000000e+00 2.500000000000e+00 -3.000000000000e+00
0.000000000000e+00 1.250000000000e+00 -3.000000000000e+00
4.285868399170e+00 7.141316008320e-01 -3.000000000000e+00
3.685357665270e+00 1.314642334730e+00 -3.000000000000e+00
3.180390356390e+00 1.819609643610e+00 -3.000000000000e+00
1.250000000000e+00 0.000000000000e+00 -3.000000000000e+00
2.500000000000e+00 0.000000000000e+00 -3.000000000000e+00
3.750000000000e+00 0.000000000000e+00 -3.000000000000e+00
4.285868399170e+00 4.285868399170e+00 -3.000000000000e+00
3.685357665270e+00 3.685357665270e+00 -3.000000000000e+00
3.180390356390e+00 3.180390356390e+00 -3.000000000000e+00
5.000000000000e+00 1.250000000000e+00 -3.000000000000e+00
5.000000000000e+00 2.500000000000e+00 -3.000000000000e+00
5.000000000000e+00 3.750000000000e+00 -3.000000000000e+00
3.750000000000e+00 5.000000000000e+00 -3.000000000000e+00
2.500000000000e+00 5.000000000000e+00 -3.000000000000e+00
1.250000000000e+00 5.000000000000e+00 -3.000000000000e+00
9.560744151940e-01 2.677827143250e+00 -3.000000000000e+00
6.659597640160e-01 1.438876720610e+00 -3.000000000000e+00
2.309219871940e+00 9.522638293400e-01 -3.000000000000e+00
3.458157207860e+00 6.354750772000e-01 -3.000000000000e+00
4.043925584810e+00 2.322172856750e+00 -3.000000000000e+00
4.334040235980e+00 3.561123279390e+00 -3.000000000000e+00
2.318530875810e+00 4.048536535600e+00 -3.000000000000e+00
3.552396921680e+00 4.370927842320e+00 -3.000000000000e+00
2.500000000000e+00 2.500000000000e+00 -3.000000000000e+00
0.000000000000e+00 0.000000000000e+00 -5.000000000000e+00
5.000000000000e+00 0.000000000000e+00 -5.000000000000e+00
5.000000000000e+00 5.000000000000e+00 -5.000000000000e+00
0.000000000000e+00 5.000000000000e+00 -5.000000000000e+00
2.244234909000e+00 2.244234909000e+00 -5.000000000000e+00
[...]
POINT_DATA 1394
SCALARS TEMPERATURE1 double 1
LOOKUP_TABLE default
1.000000000000e+01
1.000000000000e+01
1.000000000000e+01
1.000000000000e+01
1.000000000000e+01
1.000000000000e+01
1.000000000000e+01
1.000000000000e+01
1.000000000000e+01
1.000000000000e+01
1.000000000000e+01
1.000000000000e+01
1.000000000000e+01
1.000000000000e+01
1.000000000000e+01
1.000000000000e+01
1.000000000000e+01
1.000000000000e+01
1.000000000000e+01
1.000000000000e+01
1.000000000000e+01
1.000000000000e+01
1.000000000000e+01
1.000000000000e+01
1.000000000000e+01
1.000000000000e+01
1.000000000000e+01
1.000000000000e+01
1.000000000000e+01
1.000000000000e+01
1.000000000000e+01
1.000000000000e+01
1.000000000000e+01
1.000000000000e+01
1.000000000000e+01
1.000000000000e+01
1.000000000000e+01
1.000000000000e+01
1.000000000000e+01
1.000000000000e+01
1.000000000000e+01
1.876342172135e+01
1.876343481066e+01
1.876512614109e+01
1.876490318415e+01
1.789678501684e+01
1.789306788144e+01
1.788421930347e+01
1.790451224448e+01
1.870629792455e+01
1.851208441500e+01
1.818215941770e+01
1.817392979398e+01
1.852046817576e+01
1.870722079567e+01
1.872274332177e+01
1.865352330381e+01
1.870273678773e+01
1.870611113235e+01
1.851285903898e+01
1.818238795731e+01
1.872169407246e+01
1.865297954048e+01
1.870442366919e+01
1.870887802484e+01
1.850402062535e+01
1.818983808999e+01
1.872233044163e+01
1.865331329916e+01
1.870230326974e+01
1.870278762969e+01
1.865328820243e+01
1.872266561967e+01
1.851770263382e+01
1.864736268270e+01
1.851881445984e+01
1.864592069943e+01
1.851896416030e+01
1.864471469643e+01
1.852024318139e+01
1.864982386356e+01
1.800894095123e+01
2.708069068518e+01
2.708065682160e+01
2.708330692708e+01
2.708542842265e+01
2.428622123461e+01
2.429138660266e+01
2.425905555217e+01
2.435251025811e+01
2.693581746064e+01
2.648242794005e+01
2.555886115921e+01
2.553616165439e+01
2.650702127681e+01
2.693489637635e+01
2.696863957160e+01
2.680285221134e+01
2.692891310029e+01
2.693609616421e+01
2.648424486608e+01
2.556762904171e+01
2.696695700357e+01
2.680181758987e+01
2.693280680051e+01
2.694624455193e+01
2.645730423033e+01
2.559061434235e+01
2.696912878120e+01
2.680325855785e+01
2.692747547978e+01
2.692861577865e+01
2.680281682613e+01
2.696911655116e+01
2.651816622294e+01
2.679458303964e+01
2.651921791525e+01
2.679138415282e+01
2.651684519693e+01
2.678912119503e+01
2.652190488287e+01
2.680063904069e+01
2.251684931657e+01
3.167399966569e+01
3.167424142777e+01
3.167950777168e+01
3.167926685078e+01
2.766042646487e+01
2.765925120166e+01
2.765716997049e+01
2.765888778843e+01
3.146399158804e+01
3.077382527717e+01
2.945854691421e+01
2.943141658154e+01
3.080744264364e+01
3.146481614631e+01
3.151744454538e+01
3.127076616770e+01
3.145155166801e+01
3.146383155557e+01
3.077661518024e+01
2.946644788883e+01
3.151459823972e+01
3.126897336985e+01
3.145765376586e+01
3.147637475902e+01
3.074010990402e+01
2.948995620128e+01
3.151716734868e+01
3.127043031936e+01
3.144988159564e+01
3.145151212695e+01
3.127009018606e+01
3.151738014863e+01
3.081637348525e+01
3.125346305523e+01
3.081969361762e+01
3.124865221198e+01
3.081879816848e+01
3.124414304411e+01
3.082440012435e+01
3.126197617000e+01
2.340830486179e+01
3.509473186627e+01
3.509496144412e+01
3.510133488651e+01
3.510130656086e+01
3.027301422138e+01
3.027488632269e+01
3.029598713031e+01
3.023040045557e+01
3.483854867362e+01
3.397775281364e+01
3.241848244251e+01
3.238870619305e+01
3.401688070289e+01
3.484080508250e+01
3.490938312615e+01
3.460410568425e+01
3.482413064832e+01
3.483797302891e+01
3.398108722187e+01
3.242425739016e+01
3.490535840656e+01
3.460193899062e+01
3.483177301022e+01
3.485193529656e+01
3.393862939698e+01
3.244633280579e+01
3.490821683643e+01
3.460344606764e+01
3.482190737238e+01
3.482393871552e+01
3.460298141092e+01
3.490897845672e+01
3.401816411225e+01
3.457770364016e+01
3.402320524329e+01
3.457179505118e+01
3.402371693216e+01
3.456581390439e+01
3.402952802149e+01
3.458826834606e+01
2.441823971330e+01
3.738505004255e+01
3.738522627129e+01
3.739226603516e+01
3.739216701713e+01
3.219215620650e+01
3.219362863812e+01
3.223534719487e+01
3.210905809303e+01
3.710767563695e+01
3.615534058758e+01
3.448390004040e+01
3.445408656113e+01
3.619659305952e+01
3.711123515251e+01
3.718964533841e+01
3.685563418210e+01
3.709272135734e+01
3.710671257070e+01
3.615896132676e+01
3.448741660458e+01
3.718482366247e+01
3.685324113291e+01
3.710119595410e+01
3.712082847340e+01
3.611431714278e+01
3.450664088884e+01
3.718768514306e+01
3.685467903297e+01
3.709022276666e+01
3.709244907893e+01
3.685416684302e+01
3.718892951368e+01
3.619285240507e+01
3.682165036802e+01
3.619914343963e+01
3.681531522852e+01
3.620101084932e+01
3.680820697505e+01
3.620650840648e+01
3.683322805463e+01
2.517643729937e+01
3.866705801201e+01
3.866736710691e+01
3.867497576267e+01
3.867423550241e+01
3.342620984600e+01
3.342738487219e+01
3.348927421233e+01
3.330347156656e+01
3.837607465480e+01
3.737388255401e+01
3.569324215114e+01
3.566522288609e+01
3.741475082658e+01
3.838080589489e+01
3.846341007361e+01
3.810944826766e+01
3.835914863404e+01
3.837483829614e+01
3.737752470427e+01
3.569334318550e+01
3.845806904854e+01
3.810691037232e+01
3.836814148117e+01
3.838827137523e+01
3.733332549933e+01
3.570783822852e+01
3.846081082721e+01
3.810807680436e+01
3.835661541488e+01
3.835895601172e+01
3.810765304367e+01
3.846234720448e+01
3.739895062347e+01
3.807388805735e+01
3.740633659755e+01
3.806685422640e+01
3.740951906363e+01
3.805949819186e+01
3.741434211017e+01
3.808596556984e+01
2.566386370819e+01
3.924882509410e+01
3.924910924018e+01
3.925685463308e+01
3.925691277288e+01
3.329935046788e+01
3.330210650199e+01
3.333724768546e+01
3.323010879606e+01
3.893266134403e+01
3.786453719758e+01
3.595031865732e+01
3.591480752870e+01
3.791223747893e+01
3.893573085458e+01
3.902166638416e+01
3.864381524321e+01
3.891509612056e+01
3.893185124195e+01
3.786865993470e+01
3.595642923439e+01
3.901659932294e+01
3.864118083036e+01
3.892463033976e+01
3.894865884331e+01
3.781679842410e+01
3.598137476216e+01
3.902004601785e+01
3.864293361453e+01
3.891228735049e+01
3.891477932168e+01
3.864230651857e+01
3.902105362841e+01
3.791159134194e+01
3.860963343445e+01
3.791817504874e+01
3.860236647773e+01
3.791928644903e+01
3.859474205322e+01
3.792609286247e+01
3.862265405918e+01
2.577931380614e+01
4.023840810913e+01
4.023858370717e+01
4.024640736099e+01
4.024625268480e+01
3.448393860533e+01
3.448573091667e+01
3.453725825729e+01
3.438173361352e+01
3.993126940238e+01
3.886974617196e+01
3.701977749652e+01
3.698732340719e+01
3.891520254133e+01
3.993551080234e+01
4.002369935779e+01
3.965288158720e+01
3.991491937613e+01
3.993010308493e+01
3.887380021861e+01
3.702287636695e+01
4.001824603268e+01
3.965022872618e+01
3.992438228716e+01
3.994543306397e+01
3.882462830808e+01
3.704291814465e+01
4.002134878423e+01
3.965175675636e+01
3.991211391886e+01
3.991457709385e+01
3.965116715303e+01
4.002282150414e+01
3.891012992841e+01
3.961344139890e+01
3.891736223386e+01
3.960647970957e+01
3.891981307528e+01
3.959835800531e+01
3.892565888247e+01
3.962629148713e+01
2.651850552269e+01
4.043427485099e+01
4.043426764121e+01
4.044181861236e+01
4.044182885763e+01
3.492990842139e+01
3.493031200528e+01
3.498405706344e+01
3.482161734769e+01
4.014485158703e+01
3.912362951088e+01
3.734813649945e+01
3.731753472117e+01
3.916699813485e+01
4.014949841931e+01
4.023685926783e+01
3.988588092853e+01
4.013081687077e+01
4.014352032724e+01
3.912757947378e+01
3.735042526370e+01
4.023136702630e+01
3.988329786395e+01
4.013986065432e+01
4.015780543875e+01
3.908091173462e+01
3.736879521051e+01
4.023420797192e+01
3.988477463556e+01
4.012805974359e+01
4.013042000284e+01
3.988418269390e+01
4.023594721600e+01
3.916474806226e+01
3.984274278381e+01
3.917189428725e+01
3.983649136176e+01
3.917479315203e+01
3.982811150300e+01
3.918012732305e+01
3.985508921299e+01
2.705196999142e+01
4.031473759212e+01
4.031467346230e+01
4.032196242058e+01
4.032198607308e+01
3.504432913003e+01
3.504388452001e+01
3.509653102219e+01
3.493708579496e+01
4.003862416051e+01
3.905702203521e+01
3.735268714992e+01
3.732344662926e+01
3.909856104163e+01
4.004330496587e+01
4.012810943083e+01
3.979267973008e+01
4.002566993465e+01
4.003727233641e+01
3.906083277548e+01
3.735462134130e+01
4.012274429223e+01
3.979018158920e+01
4.003434156141e+01
4.005082664362e+01
3.901622849577e+01
3.737205421309e+01
4.012542441788e+01
3.979160105878e+01
4.002300820315e+01
4.002527512091e+01
3.979103062729e+01
4.012720801135e+01
3.909717545583e+01
3.974946951595e+01
3.910410950166e+01
3.974360563577e+01
3.910708241664e+01
3.973536212525e+01
3.911210803902e+01
3.976133108286e+01
2.739757815878e+01
4.012355832061e+01
4.012346201964e+01
4.013050791384e+01
4.013055181238e+01
3.504955573433e+01
3.504860260081e+01
3.509934792764e+01
3.494539670877e+01
3.985838665200e+01
3.891180249638e+01
3.726796740264e+01
3.723977652140e+01
3.895183338784e+01
3.986299965540e+01
3.994522345994e+01
3.962283400392e+01
3.984620782376e+01
3.985704882259e+01
3.891548580259e+01
3.726976715045e+01
3.994000616544e+01
3.962041527483e+01
3.985455533781e+01
3.987005640026e+01
3.887255533550e+01
3.728661444228e+01
3.994256969352e+01
3.962179321006e+01
3.984363406110e+01
3.984582046556e+01
3.962124213749e+01
3.994434868041e+01
3.895113678597e+01
3.958022580352e+01
3.895783831705e+01
3.957465460521e+01
3.896077705063e+01
3.956660549702e+01
3.896559297753e+01
3.959166627998e+01
2.764107187776e+01
3.991657816082e+01
3.991647804561e+01
3.992332880508e+01
3.992336998182e+01
3.499561866270e+01
3.499439594047e+01
3.504297251933e+01
3.489537617082e+01
3.965935560365e+01
3.874075706556e+01
3.714456067379e+01
3.711711446884e+01
3.877963667036e+01
3.966384079225e+01
3.974367202409e+01
3.943095222007e+01
3.964757801962e+01
3.965805645084e+01
3.874433130762e+01
3.714635338534e+01
3.973860365374e+01
3.942859963755e+01
3.965567310845e+01
3.967069265890e+01
3.870265102653e+01
3.716287920442e+01
3.974109349750e+01
3.942994540555e+01
3.964508293242e+01
3.964720678826e+01
3.942941423468e+01
3.974282867127e+01
3.877916804762e+01
3.938950387180e+01
3.878565528394e+01
3.938410810179e+01
3.878849232695e+01
3.937629021602e+01
3.879318284990e+01
3.940061163416e+01
2.780543043765e+01
3.967744939497e+01
3.967737250784e+01
3.968406619081e+01
3.968409506232e+01
3.486635956967e+01
3.486513228817e+01
3.491097398409e+01
3.477148420607e+01
3.942531762047e+01
3.852832281148e+01
3.696697216512e+01
3.693993708617e+01
3.856641634137e+01
3.942959490325e+01
3.950715385947e+01
3.920095514080e+01
3.941358689334e+01
3.942408680752e+01
3.853180557841e+01
3.696893647173e+01
3.950224329837e+01
3.919865774580e+01
3.942149471401e+01
3.943654069181e+01
3.849094048626e+01
3.698547405976e+01
3.950470522212e+01
3.919998481869e+01
3.941116127007e+01
3.941323910271e+01
3.919947268075e+01
3.950635222175e+01
3.856585653366e+01
3.916127608228e+01
3.857213140746e+01
3.915594495476e+01
3.857477770346e+01
3.914840253120e+01
3.857943869896e+01
3.917213378334e+01
2.788583131536e+01
3.930285456007e+01
3.930285160059e+01
3.930940481287e+01
3.930940639655e+01
3.455464206085e+01
3.455397519811e+01
3.459507313121e+01
3.446981393092e+01
3.905249629650e+01
3.817264194381e+01
3.663304579620e+01
3.660591703897e+01
3.821039192386e+01
3.905635025025e+01
3.913118612167e+01
3.882818699265e+01
3.904025696407e+01
3.905140766660e+01
3.817604125740e+01
3.663559974720e+01
3.912650091993e+01
3.882594346588e+01
3.904803113189e+01
3.906397092812e+01
3.813543488878e+01
3.665280640234e+01
3.912900836081e+01
3.882727495244e+01
3.903790236115e+01
3.903994889903e+01
3.882678279398e+01
3.913046082076e+01
3.820944742153e+01
3.879179234578e+01
3.821543746208e+01
3.878636881296e+01
3.821766649355e+01
3.877925023981e+01
3.822246850453e+01
3.880246814449e+01
2.783446761935e+01
3.847782343370e+01
3.847799609280e+01
3.848435054100e+01
3.848427408593e+01
3.375109356229e+01
3.375033717394e+01
3.377519809819e+01
3.369736172782e+01
3.822574230657e+01
3.736751319620e+01
3.582886474147e+01
3.579995460262e+01
3.740580972603e+01
3.822843855338e+01
3.829812190533e+01
3.799638915865e+01
3.821202584857e+01
3.822503748943e+01
3.737083807492e+01
3.583370141464e+01
3.829397513770e+01
3.799423015351e+01
3.821965289585e+01
3.823841260610e+01
3.732934892384e+01
3.585459694501e+01
3.829671446441e+01
3.799566226781e+01
3.820979641137e+01
3.821180429471e+01
3.799518720373e+01
3.829762853733e+01
3.740647140660e+01
3.796739605483e+01
3.741175056959e+01
3.796168718826e+01
3.741271293664e+01
3.795540075531e+01
3.741816570874e+01
3.797786321609e+01
2.766041521358e+01
3.811778316121e+01
3.811801207671e+01
3.812429968083e+01
3.812417293712e+01
3.341158084274e+01
3.341154603444e+01
3.343367918777e+01
3.336418245288e+01
3.786609610692e+01
3.701668606777e+01
3.548726849642e+01
3.545822553274e+01
3.705489447047e+01
3.786850550991e+01
3.793654793330e+01
3.763602680485e+01
3.785196237369e+01
3.786548544013e+01
3.701997331224e+01
3.549251110892e+01
3.793254785560e+01
3.763389824233e+01
3.785952571030e+01
3.787897794830e+01
3.697850192144e+01
3.551384745069e+01
3.793532484966e+01
3.763533341098e+01
3.784977485895e+01
3.785176702884e+01
3.763486962412e+01
3.793610080725e+01
3.705538391672e+01
3.760918949820e+01
3.706049297648e+01
3.760340142270e+01
3.706118239406e+01
3.759737638566e+01
3.706674365850e+01
3.761956233965e+01
2.747318604748e+01
3.756783395877e+01
3.756811939215e+01
3.757426215627e+01
3.757409821225e+01
3.292409327900e+01
3.292413592348e+01
3.293972385632e+01
3.288945181377e+01
3.731899563237e+01
3.648900909309e+01
3.497803207898e+01
3.494864875278e+01
3.652698810836e+01
3.732093163122e+01
3.738616973117e+01
3.709034938354e+01
3.730453953637e+01
3.731853526272e+01
3.649223409886e+01
3.498413359669e+01
3.738242513443e+01
3.708827609116e+01
3.731194186344e+01
3.733218153890e+01
3.645091959732e+01
3.500666413910e+01
3.738525249135e+01
3.708973854160e+01
3.730243016771e+01
3.730438109623e+01
3.708928848464e+01
3.738581971615e+01
3.652850850341e+01
3.706653316569e+01
3.653326810690e+01
3.706073390952e+01
3.653346127936e+01
3.705508501487e+01
3.653921035995e+01
3.707669066956e+01
2.730480633059e+01
3.674946824504e+01
3.674974817513e+01
3.675553789177e+01
3.675566154970e+01
3.223637899343e+01
3.223625555434e+01
3.224292844185e+01
3.221871225327e+01
3.650755786223e+01
3.570959315982e+01
3.423586761042e+01
3.420628185658e+01
3.574688363110e+01
3.650894615820e+01
3.657072737698e+01
3.628468630172e+01
3.649340479028e+01
3.650725397896e+01
3.571271568552e+01
3.424294598803e+01
3.656726625732e+01
3.628270836539e+01
3.650052086547e+01
3.652093543157e+01
3.567206220670e+01
3.426687667088e+01
3.657012250227e+01
3.628422177703e+01
3.649136563762e+01
3.649323921480e+01
3.628376332888e+01
3.657051836998e+01
3.575027050506e+01
3.626368861959e+01
3.575454996328e+01
3.625803542104e+01
3.575417111713e+01
3.625281290294e+01
3.576008428677e+01
3.627350820149e+01
2.706015606764e+01
3.568054600636e+01
3.568054646333e+01
3.568594059248e+01
3.568600858342e+01
3.134366624688e+01
3.134300623095e+01
3.133664210793e+01
3.135052305387e+01
3.546804470905e+01
3.473801849009e+01
3.330901979717e+01
3.327911865735e+01
3.477443406180e+01
3.546909428758e+01
3.552897029186e+01
3.527901827590e+01
3.545836311783e+01
3.546772638381e+01
3.474118296857e+01
3.331821395890e+01
3.552591860411e+01
3.527723203042e+01
3.546473593405e+01
3.548086102929e+01
3.470176536727e+01
3.334479289379e+01
3.552857884442e+01
3.527890042801e+01
3.545632898767e+01
3.545804521714e+01
3.527830034257e+01
3.552894014135e+01
3.479489107410e+01
3.525202524900e+01
3.479835140786e+01
3.524796264516e+01
3.479754382345e+01
3.524206967648e+01
3.480346095311e+01
3.526099316298e+01
2.681773410015e+01
3.441211572498e+01
3.441224594915e+01
3.441585737578e+01
3.441418922484e+01
3.202812357059e+01
3.203126905549e+01
3.206957650837e+01
3.195923852956e+01
3.430407941283e+01
3.391278836871e+01
3.319141681614e+01
3.318126669389e+01
3.393047898188e+01
3.430585595890e+01
3.433887072677e+01
3.420826560108e+01
3.429807543724e+01
3.430350960741e+01
3.391447922507e+01
3.319328564198e+01
3.433693187661e+01
3.420711264039e+01
3.430152292364e+01
3.430922818943e+01
3.389568828232e+01
3.319781911063e+01
3.433787844727e+01
3.420762210730e+01
3.429726100187e+01
3.429814895982e+01
3.420754447422e+01
3.433837792842e+01
3.393769727365e+01
3.419093504934e+01
3.394052154374e+01
3.418878547012e+01
3.394188760463e+01
3.418510114612e+01
3.394389425234e+01
3.419543411878e+01
2.731401183030e+01
3.406300743044e+01
3.406299407956e+01
3.406476928334e+01
3.406532192140e+01
3.303323969302e+01
3.302629408925e+01
3.300409312102e+01
3.306044801344e+01
3.398539915068e+01
3.372840970261e+01
3.330649279648e+01
3.329456913676e+01
3.373909550201e+01
3.398643469389e+01
3.400712440533e+01
3.391325356342e+01
3.398109449188e+01
3.398526261650e+01
3.372927974135e+01
3.330683992795e+01
3.400577851912e+01
3.391268297960e+01
3.398335100054e+01
3.398888346950e+01
3.371771527340e+01
3.331835979429e+01
3.400673876490e+01
3.391315871508e+01
3.398033013019e+01
3.398098563789e+01
3.391298515190e+01
3.400712031432e+01
3.373185950259e+01
3.390578861090e+01
3.373322740705e+01
3.390380205258e+01
3.373311090487e+01
3.390243137202e+01
3.373490439541e+01
3.390915985316e+01
3.380349426189e+01
3.370111785203e+01
3.370115414734e+01
3.370172942117e+01
3.370303547034e+01
3.326191066825e+01
3.325712807818e+01
3.324781093620e+01
3.327051293291e+01
3.365153004746e+01
3.350844175969e+01
3.331942151580e+01
3.331409649989e+01
3.351307971142e+01
3.365207747226e+01
3.366198268752e+01
3.360201554138e+01
3.364793955417e+01
3.365151698783e+01
3.350865057133e+01
3.331855704597e+01
3.366107911209e+01
3.360171148928e+01
3.364924980238e+01
3.365346723194e+01
3.350339432553e+01
3.332311305435e+01
3.366167032793e+01
3.360192553046e+01
3.364751406009e+01
3.364788847251e+01
3.360188408640e+01
3.366199382383e+01
3.349844492958e+01
3.360239053003e+01
3.349930395975e+01
3.360061803669e+01
3.349927136022e+01
3.360064875530e+01
3.350016506665e+01
3.360440010446e+01
3.307944105165e+01
3.333026615649e+01
3.333031738212e+01
3.333039027390e+01
3.333155710320e+01
3.312479637994e+01
3.312368071634e+01
3.312212583969e+01
3.312548791527e+01
3.330231800501e+01
3.323412022846e+01
3.315779192799e+01
3.315594142201e+01
3.323601422810e+01
3.330239402703e+01
3.330580255318e+01
3.327267327487e+01
3.329976400755e+01
3.330237100918e+01
3.323411129872e+01
3.315723278889e+01
3.330531823665e+01
3.327250560007e+01
3.330041489099e+01
3.330353246414e+01
3.323184689349e+01
3.315841461872e+01
3.330565442955e+01
3.327261114930e+01
3.329959576506e+01
3.329977445656e+01
3.327264714207e+01
3.330583727046e+01
3.322462309973e+01
3.327604667543e+01
3.322500319171e+01
3.327480506874e+01
3.322488443335e+01
3.327530962631e+01
3.322537607183e+01
3.327707686435e+01
3.314824634734e+01
3.295619307796e+01
3.295624120625e+01
3.295631008042e+01
3.295679627646e+01
3.288026904260e+01
3.287980393072e+01
3.287884161948e+01
3.288119701506e+01
3.294312773229e+01
3.291614613526e+01
3.288875525094e+01
3.288804937816e+01
3.291690224278e+01
3.294308752777e+01
3.294357467859e+01
3.292841733478e+01
3.294149122428e+01
3.294318094290e+01
3.291611262568e+01
3.288855987097e+01
3.294337237557e+01
3.292830630224e+01
3.294175050709e+01
3.294378424409e+01
3.291523376189e+01
3.288907140045e+01
3.294353017538e+01
3.292835484602e+01
3.294148708512e+01
3.294156011308e+01
3.292843236716e+01
3.294360474603e+01
3.291092177611e+01
3.293148076218e+01
3.291101882542e+01
3.293079385789e+01
3.291087681384e+01
3.293123529299e+01
3.291115052880e+01
3.293191865378e+01
3.287522853803e+01
3.156559900882e+01
3.156558701420e+01
3.156565837194e+01
3.156558022081e+01
3.157360261939e+01
3.157365762732e+01
3.157380280590e+01
3.157346399151e+01
3.156672617753e+01
3.156952235117e+01
3.157264323398e+01
3.157274602287e+01
3.156948558437e+01
3.156677508334e+01
3.156658900769e+01
3.156788661120e+01
3.156678989793e+01
3.156671035377e+01
3.156951247351e+01
3.157265494893e+01
3.156656530065e+01
3.156785679285e+01
3.156674237759e+01
3.156670656669e+01