# vtk DataFile Version 3.0
Unstructured Grid from OpenGeoSys
ASCII
DATASET UNSTRUCTURED_GRID
FIELD TimesAndCycles 2
TIME 1 1 double
3.600000000000e+03
CYLCE 1 1 long
1
POINTS 1394 double
0.000000000000e+00 0.000000000000e+00 0.000000000000e+00
5.000000000000e+00 0.000000000000e+00 0.000000000000e+00
5.000000000000e+00 5.000000000000e+00 0.000000000000e+00
0.000000000000e+00 5.000000000000e+00 0.000000000000e+00
2.244234909000e+00 2.244234909000e+00 0.000000000000e+00
2.755765091000e+00 2.244234909000e+00 0.000000000000e+00
2.755765091000e+00 2.755765091000e+00 0.000000000000e+00
2.244234909000e+00 2.755765091000e+00 0.000000000000e+00
7.141316008320e-01 7.141316008320e-01 0.000000000000e+00
1.314642334730e+00 1.314642334730e+00 0.000000000000e+00
1.819609643610e+00 1.819609643610e+00 0.000000000000e+00
1.819609643610e+00 3.180390356390e+00 0.000000000000e+00
1.314642334740e+00 3.685357665260e+00 0.000000000000e+00
7.141316008360e-01 4.285868399160e+00 0.000000000000e+00
0.000000000000e+00 3.750000000000e+00 0.000000000000e+00
0.000000000000e+00 2.500000000000e+00 0.000000000000e+00
0.000000000000e+00 1.250000000000e+00 0.000000000000e+00
4.285868399170e+00 7.141316008320e-01 0.000000000000e+00
3.685357665270e+00 1.314642334730e+00 0.000000000000e+00
3.180390356390e+00 1.819609643610e+00 0.000000000000e+00
1.250000000000e+00 0.000000000000e+00 0.000000000000e+00
2.500000000000e+00 0.000000000000e+00 0.000000000000e+00
3.750000000000e+00 0.000000000000e+00 0.000000000000e+00
4.285868399170e+00 4.285868399170e+00 0.000000000000e+00
3.685357665270e+00 3.685357665270e+00 0.000000000000e+00
3.180390356390e+00 3.180390356390e+00 0.000000000000e+00
5.000000000000e+00 1.250000000000e+00 0.000000000000e+00
5.000000000000e+00 2.500000000000e+00 0.000000000000e+00
5.000000000000e+00 3.750000000000e+00 0.000000000000e+00
3.750000000000e+00 5.000000000000e+00 0.000000000000e+00
2.500000000000e+00 5.000000000000e+00 0.000000000000e+00
1.250000000000e+00 5.000000000000e+00 0.000000000000e+00
9.560744151940e-01 2.677827143250e+00 0.000000000000e+00
6.659597640160e-01 1.438876720610e+00 0.000000000000e+00
2.309219871940e+00 9.522638293400e-01 0.000000000000e+00
3.458157207860e+00 6.354750772000e-01 0.000000000000e+00
4.043925584810e+00 2.322172856750e+00 0.000000000000e+00
4.334040235980e+00 3.561123279390e+00 0.000000000000e+00
2.318530875810e+00 4.048536535600e+00 0.000000000000e+00
3.552396921680e+00 4.370927842320e+00 0.000000000000e+00
2.500000000000e+00 2.500000000000e+00 0.000000000000e+00
0.000000000000e+00 0.000000000000e+00 -5.000000000000e-01
5.000000000000e+00 0.000000000000e+00 -5.000000000000e-01
5.000000000000e+00 5.000000000000e+00 -5.000000000000e-01
0.000000000000e+00 5.000000000000e+00 -5.000000000000e-01
2.244234909000e+00 2.244234909000e+00 -5.000000000000e-01
2.755765091000e+00 2.244234909000e+00 -5.000000000000e-01
2.755765091000e+00 2.755765091000e+00 -5.000000000000e-01
2.244234909000e+00 2.755765091000e+00 -5.000000000000e-01
7.141316008320e-01 7.141316008320e-01 -5.000000000000e-01
1.314642334730e+00 1.314642334730e+00 -5.000000000000e-01
1.819609643610e+00 1.819609643610e+00 -5.000000000000e-01
1.819609643610e+00 3.180390356390e+00 -5.000000000000e-01
1.314642334740e+00 3.685357665260e+00 -5.000000000000e-01
7.141316008360e-01 4.285868399160e+00 -5.000000000000e-01
0.000000000000e+00 3.750000000000e+00 -5.000000000000e-01
0.000000000000e+00 2.500000000000e+00 -5.000000000000e-01
0.000000000000e+00 1.250000000000e+00 -5.000000000000e-01
4.285868399170e+00 7.141316008320e-01 -5.000000000000e-01
3.685357665270e+00 1.314642334730e+00 -5.000000000000e-01
3.180390356390e+00 1.819609643610e+00 -5.000000000000e-01
1.250000000000e+00 0.000000000000e+00 -5.000000000000e-01
2.500000000000e+00 0.000000000000e+00 -5.000000000000e-01
3.750000000000e+00 0.000000000000e+00 -5.000000000000e-01
4.285868399170e+00 4.285868399170e+00 -5.000000000000e-01
3.685357665270e+00 3.685357665270e+00 -5.000000000000e-01
3.180390356390e+00 3.180390356390e+00 -5.000000000000e-01
5.000000000000e+00 1.250000000000e+00 -5.000000000000e-01
5.000000000000e+00 2.500000000000e+00 -5.000000000000e-01
5.000000000000e+00 3.750000000000e+00 -5.000000000000e-01
3.750000000000e+00 5.000000000000e+00 -5.000000000000e-01
2.500000000000e+00 5.000000000000e+00 -5.000000000000e-01
1.250000000000e+00 5.000000000000e+00 -5.000000000000e-01
9.560744151940e-01 2.677827143250e+00 -5.000000000000e-01
6.659597640160e-01 1.438876720610e+00 -5.000000000000e-01
2.309219871940e+00 9.522638293400e-01 -5.000000000000e-01
3.458157207860e+00 6.354750772000e-01 -5.000000000000e-01
4.043925584810e+00 2.322172856750e+00 -5.000000000000e-01
4.334040235980e+00 3.561123279390e+00 -5.000000000000e-01
2.318530875810e+00 4.048536535600e+00 -5.000000000000e-01
3.552396921680e+00 4.370927842320e+00 -5.000000000000e-01
2.500000000000e+00 2.500000000000e+00 -5.000000000000e-01
0.000000000000e+00 0.000000000000e+00 -1.000000000000e+00
5.000000000000e+00 0.000000000000e+00 -1.000000000000e+00
5.000000000000e+00 5.000000000000e+00 -1.000000000000e+00
0.000000000000e+00 5.000000000000e+00 -1.000000000000e+00
2.244234909000e+00 2.244234909000e+00 -1.000000000000e+00
2.755765091000e+00 2.244234909000e+00 -1.000000000000e+00
2.755765091000e+00 2.755765091000e+00 -1.000000000000e+00
2.244234909000e+00 2.755765091000e+00 -1.000000000000e+00
7.141316008320e-01 7.141316008320e-01 -1.000000000000e+00
1.314642334730e+00 1.314642334730e+00 -1.000000000000e+00
1.819609643610e+00 1.819609643610e+00 -1.000000000000e+00
1.819609643610e+00 3.180390356390e+00 -1.000000000000e+00
1.314642334740e+00 3.685357665260e+00 -1.000000000000e+00
7.141316008360e-01 4.285868399160e+00 -1.000000000000e+00
0.000000000000e+00 3.750000000000e+00 -1.000000000000e+00
0.000000000000e+00 2.500000000000e+00 -1.000000000000e+00
0.000000000000e+00 1.250000000000e+00 -1.000000000000e+00
4.285868399170e+00 7.141316008320e-01 -1.000000000000e+00
3.685357665270e+00 1.314642334730e+00 -1.000000000000e+00
3.180390356390e+00 1.819609643610e+00 -1.000000000000e+00
1.250000000000e+00 0.000000000000e+00 -1.000000000000e+00
2.500000000000e+00 0.000000000000e+00 -1.000000000000e+00
3.750000000000e+00 0.000000000000e+00 -1.000000000000e+00
4.285868399170e+00 4.285868399170e+00 -1.000000000000e+00
3.685357665270e+00 3.685357665270e+00 -1.000000000000e+00
3.180390356390e+00 3.180390356390e+00 -1.000000000000e+00
5.000000000000e+00 1.250000000000e+00 -1.000000000000e+00
5.000000000000e+00 2.500000000000e+00 -1.000000000000e+00
5.000000000000e+00 3.750000000000e+00 -1.000000000000e+00
3.750000000000e+00 5.000000000000e+00 -1.000000000000e+00
2.500000000000e+00 5.000000000000e+00 -1.000000000000e+00
1.250000000000e+00 5.000000000000e+00 -1.000000000000e+00
9.560744151940e-01 2.677827143250e+00 -1.000000000000e+00
6.659597640160e-01 1.438876720610e+00 -1.000000000000e+00
2.309219871940e+00 9.522638293400e-01 -1.000000000000e+00
3.458157207860e+00 6.354750772000e-01 -1.000000000000e+00
4.043925584810e+00 2.322172856750e+00 -1.000000000000e+00
4.334040235980e+00 3.561123279390e+00 -1.000000000000e+00
2.318530875810e+00 4.048536535600e+00 -1.000000000000e+00
3.552396921680e+00 4.370927842320e+00 -1.000000000000e+00
2.500000000000e+00 2.500000000000e+00 -1.000000000000e+00
0.000000000000e+00 0.000000000000e+00 -3.000000000000e+00
5.000000000000e+00 0.000000000000e+00 -3.000000000000e+00
5.000000000000e+00 5.000000000000e+00 -3.000000000000e+00
0.000000000000e+00 5.000000000000e+00 -3.000000000000e+00
2.244234909000e+00 2.244234909000e+00 -3.000000000000e+00
2.755765091000e+00 2.244234909000e+00 -3.000000000000e+00
2.755765091000e+00 2.755765091000e+00 -3.000000000000e+00
2.244234909000e+00 2.755765091000e+00 -3.000000000000e+00
7.141316008320e-01 7.141316008320e-01 -3.000000000000e+00
1.314642334730e+00 1.314642334730e+00 -3.000000000000e+00
1.819609643610e+00 1.819609643610e+00 -3.000000000000e+00
1.819609643610e+00 3.180390356390e+00 -3.000000000000e+00
1.314642334740e+00 3.685357665260e+00 -3.000000000000e+00
7.141316008360e-01 4.285868399160e+00 -3.000000000000e+00
0.000000000000e+00 3.750000000000e+00 -3.000000000000e+00
0.000000000000e+00 2.500000000000e+00 -3.000000000000e+00
0.000000000000e+00 1.250000000000e+00 -3.000000000000e+00
4.285868399170e+00 7.141316008320e-01 -3.000000000000e+00
3.685357665270e+00 1.314642334730e+00 -3.000000000000e+00
3.180390356390e+00 1.819609643610e+00 -3.000000000000e+00
1.250000000000e+00 0.000000000000e+00 -3.000000000000e+00
2.500000000000e+00 0.000000000000e+00 -3.000000000000e+00
3.750000000000e+00 0.000000000000e+00 -3.000000000000e+00
4.285868399170e+00 4.285868399170e+00 -3.000000000000e+00
3.685357665270e+00 3.685357665270e+00 -3.000000000000e+00
3.180390356390e+00 3.180390356390e+00 -3.000000000000e+00
5.000000000000e+00 1.250000000000e+00 -3.000000000000e+00
5.000000000000e+00 2.500000000000e+00 -3.000000000000e+00
5.000000000000e+00 3.750000000000e+00 -3.000000000000e+00
3.750000000000e+00 5.000000000000e+00 -3.000000000000e+00
2.500000000000e+00 5.000000000000e+00 -3.000000000000e+00
1.250000000000e+00 5.000000000000e+00 -3.000000000000e+00
9.560744151940e-01 2.677827143250e+00 -3.000000000000e+00
6.659597640160e-01 1.438876720610e+00 -3.000000000000e+00
2.309219871940e+00 9.522638293400e-01 -3.000000000000e+00
3.458157207860e+00 6.354750772000e-01 -3.000000000000e+00
4.043925584810e+00 2.322172856750e+00 -3.000000000000e+00
4.334040235980e+00 3.561123279390e+00 -3.000000000000e+00
2.318530875810e+00 4.048536535600e+00 -3.000000000000e+00
3.552396921680e+00 4.370927842320e+00 -3.000000000000e+00
2.500000000000e+00 2.500000000000e+00 -3.000000000000e+00
0.000000000000e+00 0.000000000000e+00 -5.000000000000e+00
5.000000000000e+00 0.000000000000e+00 -5.000000000000e+00
5.000000000000e+00 5.000000000000e+00 -5.000000000000e+00
0.000000000000e+00 5.000000000000e+00 -5.000000000000e+00
2.244234909000e+00 2.244234909000e+00 -5.000000000000e+00
[...]
POINT_DATA 1394
SCALARS TEMPERATURE1 double 1
LOOKUP_TABLE default
1.000000000000e+01
1.000000000000e+01
1.000000000000e+01
1.000000000000e+01
1.000000000000e+01
1.000000000000e+01
1.000000000000e+01
1.000000000000e+01
1.000000000000e+01
1.000000000000e+01
1.000000000000e+01
1.000000000000e+01
1.000000000000e+01
1.000000000000e+01
1.000000000000e+01
1.000000000000e+01
1.000000000000e+01
1.000000000000e+01
1.000000000000e+01
1.000000000000e+01
1.000000000000e+01
1.000000000000e+01
1.000000000000e+01
1.000000000000e+01
1.000000000000e+01
1.000000000000e+01
1.000000000000e+01
1.000000000000e+01
1.000000000000e+01
1.000000000000e+01
1.000000000000e+01
1.000000000000e+01
1.000000000000e+01
1.000000000000e+01
1.000000000000e+01
1.000000000000e+01
1.000000000000e+01
1.000000000000e+01
1.000000000000e+01
1.000000000000e+01
1.000000000000e+01
1.867148379908e+01
1.867047330753e+01
1.866319867138e+01
1.866572477918e+01
2.251194603112e+01
2.254127188520e+01
2.263451727859e+01
2.239576542976e+01
1.896443127489e+01
1.988556449271e+01
2.145944515497e+01
2.150547794905e+01
1.984522107882e+01
1.896277816473e+01
1.889876097495e+01
1.924792363945e+01
1.898808954057e+01
1.896412992604e+01
1.988200660516e+01
2.145533554849e+01
1.890184461824e+01
1.924979556956e+01
1.897952233728e+01
1.895050237746e+01
1.992669041784e+01
2.140923001965e+01
1.889806398070e+01
1.924852218844e+01
1.899027886626e+01
1.898809325815e+01
1.924911719375e+01
1.889885239364e+01
1.986850569409e+01
1.925757327342e+01
1.986371148645e+01
1.926566558607e+01
1.986589659809e+01
1.926990675624e+01
1.985901819481e+01
1.924626891693e+01
2.039342184087e+01
2.787671314420e+01
2.787434419653e+01
2.786242925040e+01
2.786463240137e+01
3.888137163620e+01
3.883913124826e+01
3.875235657639e+01
3.898802173283e+01
2.844186599275e+01
3.017148170467e+01
3.342282338780e+01
3.347925019664e+01
3.008834379871e+01
2.844362117043e+01
2.832749349322e+01
2.898536656777e+01
2.848511256952e+01
2.844121905071e+01
3.016479552246e+01
3.340312671230e+01
2.833274979412e+01
2.898919353676e+01
2.846890911717e+01
2.840849313675e+01
3.025810867280e+01
3.336646508752e+01
2.832599857462e+01
2.898656844933e+01
2.848919750930e+01
2.848523641478e+01
2.898761866380e+01
2.832813637267e+01
3.009425682191e+01
2.899437387368e+01
3.008488349704e+01
2.900950346264e+01
3.008762124593e+01
2.901789327589e+01
3.007417378594e+01
2.897380224762e+01
5.353303976724e+01
3.276178609985e+01
3.275869422186e+01
3.274756256418e+01
3.274863651491e+01
4.285779575200e+01
4.283030948168e+01
4.277898693177e+01
4.292262163168e+01
3.336257458645e+01
3.510329133777e+01
3.818130358474e+01
3.823946751302e+01
3.502458574926e+01
3.336494702896e+01
3.325942293053e+01
3.395985373127e+01
3.341541250630e+01
3.336123242891e+01
3.509744228551e+01
3.816598707909e+01
3.326444955566e+01
3.396346006936e+01
3.339867898106e+01
3.332911545979e+01
3.518728508516e+01
3.812639338531e+01
3.325716028079e+01
3.396126699942e+01
3.341929799231e+01
3.341528080495e+01
3.396212279114e+01
3.325996184922e+01
3.507807827048e+01
3.394245521049e+01
3.506847858455e+01
3.396095122895e+01
3.507235878168e+01
3.396562127118e+01
3.505895333457e+01
3.392146016726e+01
5.448013327630e+01
3.522920097707e+01
3.522604674382e+01
3.521629870333e+01
3.521746147631e+01
4.421675036667e+01
4.419036222191e+01
4.413759061531e+01
4.428439257068e+01
3.577802709638e+01
3.733404349401e+01
4.004792044608e+01
4.009841786668e+01
3.726464736477e+01
3.578077698167e+01
3.569116127149e+01
3.633020926816e+01
3.582896996736e+01
3.577654364376e+01
3.732905007381e+01
4.003477599869e+01
3.569534695758e+01
3.633335779248e+01
3.581381878878e+01
3.574769293590e+01
3.740892272718e+01
4.000190944568e+01
3.568869895098e+01
3.633160788596e+01
3.583231077889e+01
3.582872713597e+01
3.633229529536e+01
3.569168913630e+01
3.732467283459e+01
3.630442388574e+01
3.731595837746e+01
3.632203967523e+01
3.731974795277e+01
3.632506513601e+01
3.730780943249e+01
3.628571301838e+01
5.493638375148e+01
3.626781395832e+01
3.626481960061e+01
3.625554667287e+01
3.625677291922e+01
4.484252276570e+01
4.481696301088e+01
4.476614538291e+01
4.490730210178e+01
3.678808579786e+01
3.826662753091e+01
4.085341064844e+01
4.090146324944e+01
3.820049746516e+01
3.679072305739e+01
3.670515655496e+01
3.731090383599e+01
3.683616461857e+01
3.678668342150e+01
3.826183916499e+01
4.084071819072e+01
3.670908976801e+01
3.731387406044e+01
3.682176701498e+01
3.675927635271e+01
3.833795327559e+01
4.080944989160e+01
3.670278257213e+01
3.731221130374e+01
3.683936544976e+01
3.683596382312e+01
3.731290002696e+01
3.670566629038e+01
3.825562677877e+01
3.728736765888e+01
3.824733817311e+01
3.730396423451e+01
3.825092773957e+01
3.730701593610e+01
3.823959277916e+01
3.726962380716e+01
5.507121399640e+01
3.664717709332e+01
3.664425188741e+01
3.663521218145e+01
3.663630624978e+01
4.504227745817e+01
4.501712552640e+01
4.496687009410e+01
4.510641396984e+01
3.715696617019e+01
3.860508035549e+01
4.113635659432e+01
4.118330852552e+01
3.854038245557e+01
3.715954831588e+01
3.707573854451e+01
3.766929507501e+01
3.720403489750e+01
3.715559474965e+01
3.860040530373e+01
4.112397910027e+01
3.707960871548e+01
3.767220136737e+01
3.718993299728e+01
3.712875094931e+01
3.867488823310e+01
4.109352446630e+01
3.707343020832e+01
3.767057117959e+01
3.720717798117e+01
3.720384656757e+01
3.767124815065e+01
3.707623582194e+01
3.859485469871e+01
3.764615055577e+01
3.858672960455e+01
3.766242786977e+01
3.859023245274e+01
3.766538615454e+01
3.857913981590e+01
3.762876138413e+01
5.507249749403e+01
3.675673905256e+01
3.675384421599e+01
3.674487445687e+01
3.674595278535e+01
4.508616967128e+01
4.506113515554e+01
4.501109821709e+01
4.514998781098e+01
3.726211829995e+01
3.869803494354e+01
4.120884181401e+01
4.125538249533e+01
3.863385594263e+01
3.726467303166e+01
3.718152203582e+01
3.776993479449e+01
3.730874664607e+01
3.726076292031e+01
3.869339736704e+01
4.119654571163e+01
3.718536701725e+01
3.777282130914e+01
3.729476787560e+01
3.723413247883e+01
3.876726828158e+01
4.116636804700e+01
3.717924286288e+01
3.777120000554e+01
3.731186251636e+01
3.730855826668e+01
3.777186871318e+01
3.718201432193e+01
3.868767609105e+01
3.774709151198e+01
3.867962439979e+01
3.776322105225e+01
3.868309249196e+01
3.776616417828e+01
3.867208799724e+01
3.772984599179e+01
5.504362410706e+01
3.647497164828e+01
3.647213691550e+01
3.646316574594e+01
3.646419291116e+01
4.479201794770e+01
4.476718878434e+01
4.471820245270e+01
4.485423298044e+01
3.697769213735e+01
3.841042919485e+01
4.092071097041e+01
4.096734964261e+01
3.834625874318e+01
3.698016064985e+01
3.689655693525e+01
3.748196512941e+01
3.702370576969e+01
3.697637732117e+01
3.840577214555e+01
4.090836505104e+01
3.690043876535e+01
3.748485654999e+01
3.700978501284e+01
3.694981449823e+01
3.847954226190e+01
4.087791646255e+01
3.689434400468e+01
3.748320854926e+01
3.702683438318e+01
3.702353479473e+01
3.748388481715e+01
3.689703990595e+01
3.839834677648e+01
3.746053595239e+01
3.839033627795e+01
3.747648744251e+01
3.839375801040e+01
3.747957177778e+01
3.838276532641e+01
3.744331647930e+01
5.461850378978e+01
3.618411194603e+01
3.618132161617e+01
3.617232906209e+01
3.617332198880e+01
4.450919760154e+01
4.448448288199e+01
4.443621963432e+01
4.457028814227e+01
3.668560390767e+01
3.811863886254e+01
4.063393019671e+01
4.068074496897e+01
3.805433732398e+01
3.668800526677e+01
3.660383926239e+01
3.718789228612e+01
3.673119071077e+01
3.668432077346e+01
3.811395436713e+01
4.062151097482e+01
3.660775865224e+01
3.719079360534e+01
3.671728969966e+01
3.665776029728e+01
3.818779831469e+01
4.059077725495e+01
3.660167655455e+01
3.718911994555e+01
3.673433644930e+01
3.673103428070e+01
3.718980458615e+01
3.660431597470e+01
3.810501871789e+01
3.716763181834e+01
3.809702530411e+01
3.718346280805e+01
3.810041377144e+01
3.718667760954e+01
3.808940918835e+01
3.715040008556e+01
5.425789817113e+01
3.596594896647e+01
3.596319982946e+01
3.595420585592e+01
3.595516654425e+01
4.428374702285e+01
4.425916136745e+01
4.421156889389e+01
4.434380981471e+01
3.646560371907e+01
3.789649903028e+01
4.041167866310e+01
4.045855893078e+01
3.783219797197e+01
3.646794635580e+01
3.638345853353e+01
3.696543372479e+01
3.651076341863e+01
3.646434864113e+01
3.789180006406e+01
4.039922056881e+01
3.638740241073e+01
3.696833810878e+01
3.649690169200e+01
3.643783408684e+01
3.796558110111e+01
4.036830610292e+01
3.638134066586e+01
3.696664608412e+01
3.651391831257e+01
3.651061949708e+01
3.696733669155e+01
3.638392919470e+01
3.788164983383e+01
3.694616414592e+01
3.787368373110e+01
3.696187027688e+01
3.787703932376e+01
3.696518615087e+01
3.786604331271e+01
3.692895074685e+01
5.395063583813e+01
3.579294414891e+01
3.579023001239e+01
3.578123954617e+01
3.578217324918e+01
4.410099924552e+01
4.407652840416e+01
4.402950335297e+01
4.416019633919e+01
3.629085847570e+01
3.771933355906e+01
4.023326513923e+01
4.028017703606e+01
3.765506273096e+01
3.629315229138e+01
3.620843908360e+01
3.678843752060e+01
3.633564620175e+01
3.628962691226e+01
3.771462480245e+01
4.022078046467e+01
3.621240087357e+01
3.679134280401e+01
3.632182301051e+01
3.626316252651e+01
3.778832053340e+01
4.018973306794e+01
3.620635861075e+01
3.678963657922e+01
3.633880734578e+01
3.633551289086e+01
3.679033206105e+01
3.620890459403e+01
3.770348038293e+01
3.676999082707e+01
3.769554017250e+01
3.678558692733e+01
3.769886726215e+01
3.678898460240e+01
3.768788361427e+01
3.675280067084e+01
5.369667890989e+01
3.566588318243e+01
3.566319806137e+01
3.565421681879e+01
3.565512838333e+01
4.396093024567e+01
4.393656280171e+01
4.389000855189e+01
4.401941490022e+01
3.616211498702e+01
3.758776758099e+01
4.009907636863e+01
4.014598192947e+01
3.752356274713e+01
3.616436962274e+01
3.607953575249e+01
3.665761349768e+01
3.620658290125e+01
3.616090247629e+01
3.758305426633e+01
4.008657908601e+01
3.608350866619e+01
3.666051731291e+01
3.619279868467e+01
3.613449474425e+01
3.765663542594e+01
4.005544926288e+01
3.607748550264e+01
3.665880122261e+01
3.620974708624e+01
3.620645824064e+01
3.665950032509e+01
3.607999695515e+01
3.757114317493e+01
3.663982055201e+01
3.756322816271e+01
3.665532053631e+01
3.756653091328e+01
3.665877994245e+01
3.755556429852e+01
3.662265990255e+01
5.349465067153e+01
3.558241262541e+01
3.557975035013e+01
3.557078291241e+01
3.557167735677e+01
4.386211734894e+01
4.383783992776e+01
4.379165901834e+01
4.392004260893e+01
3.607707110972e+01
3.749965470058e+01
4.000725868803e+01
4.005412593943e+01
3.743554404083e+01
3.607929634116e+01
3.599443634203e+01
3.657070907251e+01
3.612127546210e+01
3.607587312361e+01
3.749494144556e+01
3.999476098296e+01
3.599841408636e+01
3.657360942915e+01
3.610752921822e+01
3.604952555046e+01
3.756838719512e+01
3.996359438893e+01
3.599240901196e+01
3.657188755580e+01
3.612443982488e+01
3.612115747948e+01
3.657258908159e+01
3.599489410179e+01
3.748248491232e+01
3.655340114818e+01
3.747459365587e+01
3.656882034281e+01
3.747787663789e+01
3.657232208286e+01
3.746693040750e+01
3.653627439137e+01
5.334375269042e+01
3.553637717315e+01
3.553373110486e+01
3.552477876021e+01
3.552566131746e+01
4.380119711754e+01
4.377699183169e+01
4.373107816276e+01
4.385872880555e+01
3.602972486891e+01
3.744948128161e+01
3.995318454085e+01
3.999999895052e+01
3.738547055595e+01
3.603193015916e+01
3.594710263727e+01
3.652186693461e+01
3.607373205903e+01
3.602853686757e+01
3.744477086875e+01
3.994069454790e+01
3.595108069717e+01
3.652476286057e+01
3.606001828346e+01
3.600224462932e+01
3.751808538924e+01
3.990952389599e+01
3.594509086215e+01
3.652303854563e+01
3.607689507153e+01
3.607361895140e+01
3.652374167710e+01
3.594755799747e+01
3.743197299436e+01
3.650488361605e+01
3.742410130969e+01
3.652024122265e+01
3.742736953754e+01
3.652376870845e+01
3.741644349727e+01
3.648778922674e+01
5.324362214678e+01
3.554946019071e+01
3.554682609940e+01
3.553790246048e+01
3.553877708246e+01
4.378931715376e+01
4.376518468635e+01
4.371947530060e+01
4.384655624038e+01
3.604115781025e+01
3.745647039112e+01
3.995276698473e+01
3.999945002889e+01
3.739264908772e+01
3.604335293300e+01
3.595874579569e+01
3.653158952725e+01
3.608498970074e+01
3.603997575244e+01
3.745177223974e+01
3.994030729713e+01
3.596271333273e+01
3.653447625234e+01
3.607132032731e+01
3.601376592968e+01
3.752486541395e+01
3.990921074277e+01
3.595674313582e+01
3.653275542080e+01
3.608814507602e+01
3.608487932081e+01
3.653345803379e+01
3.595919907225e+01
3.743888153847e+01
3.651475476670e+01
3.743103588826e+01
3.653005353163e+01
3.743429230807e+01
3.653358136888e+01
3.742339965274e+01
3.649771370391e+01
5.319272895987e+01
3.558922471121e+01
3.558659917929e+01
3.557770332728e+01
3.557855196412e+01
4.381048384290e+01
4.378641721374e+01
4.374074169972e+01
4.386773988254e+01
3.607990462589e+01
3.749243440939e+01
3.998317037599e+01
4.002974115232e+01
3.742876237687e+01
3.608208715198e+01
3.599759955572e+01
3.656928668489e+01
3.612361440476e+01
3.607872751320e+01
3.748774853258e+01
3.997075881270e+01
3.600156531747e+01
3.657216582984e+01
3.610997230835e+01
3.605257924991e+01
3.756067399545e+01
3.993975479043e+01
3.599560791850e+01
3.657044836268e+01
3.612676797829e+01
3.612350824200e+01
3.657115196262e+01
3.599805224540e+01
3.747498143092e+01
3.655255322130e+01
3.746714720180e+01
3.656781879163e+01
3.747038833330e+01
3.657134283046e+01
3.745952331681e+01
3.653554345726e+01
5.319959049205e+01
3.561922962240e+01
3.561659783257e+01
3.560765929303e+01
3.560864624165e+01
4.383399707977e+01
4.380983212070e+01
4.376429575537e+01
4.389082085876e+01
3.610858321383e+01
3.751732067003e+01
4.000524297676e+01
4.005176549052e+01
3.745368520155e+01
3.611078166192e+01
3.602665347916e+01
3.659669296163e+01
3.615228262386e+01
3.610740317566e+01
3.751263079282e+01
3.999274461421e+01
3.603058648079e+01
3.659957739033e+01
3.613868022286e+01
3.608127951478e+01
3.758548232041e+01
3.996170834251e+01
3.602464487789e+01
3.659786257142e+01
3.615540677512e+01
3.615215461767e+01
3.659855045137e+01
3.602710588144e+01
3.749916971473e+01
3.657988119160e+01
3.749137682631e+01
3.659510089918e+01
3.749463680797e+01
3.659862394493e+01
3.748377166206e+01
3.656292668176e+01
5.319726122562e+01
3.547505318511e+01
3.547242197535e+01
3.546359462808e+01
3.546398280318e+01
4.370290660377e+01
4.367891637864e+01
4.363237996076e+01
4.376184661818e+01
3.597173025639e+01
3.739424797628e+01
3.988578011189e+01
3.993226154443e+01
3.733056066620e+01
3.597391222153e+01
3.588947267537e+01
3.646819400199e+01
3.601619571328e+01
3.597053499179e+01
3.738963196044e+01
3.987366774312e+01
3.589357256572e+01
3.647111774867e+01
3.600245584438e+01
3.594416197018e+01
3.746262134720e+01
3.984298176907e+01
3.588755238143e+01
3.646938127163e+01
3.601935324146e+01
3.601606619499e+01
3.647004393477e+01
3.588990913259e+01
3.738108716563e+01
3.644957816089e+01
3.737319733804e+01
3.646522492952e+01
3.737645764645e+01
3.646842511058e+01
3.736551527155e+01
3.643236909759e+01
5.316045364496e+01
3.470791014218e+01
3.470579188279e+01
3.469606020916e+01
3.469713449706e+01
4.341622202394e+01
4.339213314749e+01
4.335111974207e+01
4.346554415126e+01
3.519589005641e+01
3.666209348185e+01
3.932822925893e+01
3.937876898828e+01
3.659392593706e+01
3.519718157239e+01
3.510135914673e+01
3.567101859284e+01
3.523490281058e+01
3.519514843202e+01
3.665675631743e+01
3.931396609823e+01
3.510587570900e+01
3.567412610987e+01
3.522106371931e+01
3.516817741273e+01
3.673369566645e+01
3.927822383140e+01
3.509994820554e+01
3.567201106596e+01
3.523838810369e+01
3.523499456712e+01
3.567289068480e+01
3.510179363605e+01
3.661785113117e+01
3.567171499002e+01
3.660991666712e+01
3.568556004815e+01
3.661269470588e+01
3.569140784070e+01
3.660135364335e+01
3.565405324046e+01
5.296740165967e+01
3.298703958403e+01
3.298569582587e+01
3.297900441797e+01
3.298073217884e+01
3.997310019812e+01
3.993024661054e+01
3.983383772868e+01
4.008989537535e+01
3.329573876280e+01
3.425245886910e+01
3.616137780647e+01
3.618806349954e+01
3.420354300048e+01
3.329764352722e+01
3.323244130891e+01
3.358832237012e+01
3.331806120399e+01
3.329543189068e+01
3.424846897209e+01
3.614683050191e+01
3.323509790500e+01
3.359053859258e+01
3.330914288721e+01
3.327578262131e+01
3.430325273438e+01
3.613429448928e+01
3.323148629749e+01
3.358896606827e+01
3.332030548038e+01
3.331814954725e+01
3.358957590967e+01
3.323289226647e+01
3.418744094298e+01
3.359647925644e+01
3.418232055173e+01
3.360410699495e+01
3.418362777850e+01
3.360969402576e+01
3.417593192162e+01
3.358535922406e+01
5.143538034809e+01
3.247700223176e+01
3.247585061056e+01
3.247123497655e+01
3.247213659566e+01
3.533757908039e+01
3.535293479127e+01
3.541326346303e+01
3.525734403836e+01
3.270931824688e+01
3.338105309861e+01
3.449466432318e+01
3.452653268290e+01
3.335227917465e+01
3.270942074952e+01
3.266927953563e+01
3.294305991755e+01
3.273099316314e+01
3.270865087827e+01
3.337879275234e+01
3.449134703661e+01
3.267118531331e+01
3.294431625870e+01
3.272451975008e+01
3.269776971902e+01
3.341154161275e+01
3.446052281259e+01
3.266812417189e+01
3.294349563651e+01
3.273249500622e+01
3.273090718201e+01
3.294386430412e+01
3.266925684361e+01
3.338464895386e+01
3.293518304877e+01
3.338126930342e+01
3.294263878574e+01
3.338370141477e+01
3.294389921324e+01
3.337836234765e+01
3.292686829422e+01
3.363186169739e+01
3.197524748159e+01
3.197411128989e+01
3.197215421615e+01
3.197139616728e+01
3.316499869565e+01
3.317880343969e+01
3.320294640557e+01
3.314557603880e+01
3.213511274980e+01
3.253950562247e+01
3.304168289606e+01
3.305634145087e+01
3.252710192980e+01
3.213504057831e+01
3.211721535126e+01
3.230773410912e+01
3.215380916056e+01
3.213447600860e+01
3.253898613754e+01
3.304430696370e+01
3.211853464821e+01
3.230836531008e+01
3.214962054225e+01
3.212899206743e+01
3.255432314629e+01
3.303271285769e+01
3.211661166137e+01
3.230832917584e+01
3.215460269115e+01
3.215362581909e+01
3.230836977495e+01
3.211736271609e+01
3.258379351507e+01
3.228694602586e+01
3.258105616135e+01
3.229368815624e+01
3.258210981611e+01
3.229202255532e+01
3.257968722887e+01
3.228177676777e+01
3.357629404616e+01
3.150861383690e+01
3.150768840439e+01
3.150730288713e+01
3.150587787716e+01
3.214276334534e+01
3.214567798925e+01
3.215035091466e+01
3.214035495306e+01
3.160943075878e+01
3.182556819792e+01
3.205077864828e+01
3.205669879116e+01
3.181996907345e+01
3.161031058235e+01
3.160591579065e+01
3.172400994672e+01
3.162296604695e+01
3.160875676227e+01
3.182563179156e+01
3.205247285058e+01
3.160643173189e+01
3.172425612843e+01
3.162053843505e+01
3.160524630028e+01
3.183343818132e+01
3.204937308857e+01
3.160517969511e+01
3.172435278153e+01
3.162333491339e+01
3.162281416895e+01
3.172431613316e+01
3.160594364899e+01
3.186529577730e+01
3.170083419655e+01
3.186383491526e+01
3.170576861543e+01
3.186491649509e+01
3.170331817827e+01
3.186348547984e+01
3.169798180324e+01
3.209437414012e+01
3.109853434053e+01
3.109781054973e+01
3.109753974032e+01
3.109741209920e+01
3.139112434614e+01
3.139272711967e+01
3.139605413601e+01
3.138826656042e+01
3.115506091024e+01
3.126020191594e+01
3.136078256512e+01
3.136370369304e+01
3.125756481366e+01
3.115598411939e+01
3.115739397744e+01
3.122254405530e+01
3.116443049418e+01
3.115451659012e+01
3.126028700764e+01
3.136148056051e+01
3.115735579676e+01
3.122266217261e+01
3.116312964496e+01
3.115257197978e+01
3.126427315266e+01
3.135993058709e+01
3.115663703089e+01
3.122282146423e+01
3.116444313931e+01
3.116420810314e+01
3.122271255374e+01
3.115741133265e+01
3.128489653585e+01
3.120428226820e+01
3.128421366079e+01
3.120734064932e+01
3.128515511171e+01
3.120545108444e+01
3.128434003335e+01
3.120296795312e+01
3.140532195833e+01
3.009525707848e+01
3.009516234476e+01
3.009512006384e+01
3.009550969298e+01
3.008779366350e+01
3.008770152408e+01
3.008747760160e+01
3.008809071039e+01
3.009530064787e+01
3.009292003435e+01
3.008909407679e+01
3.008903953918e+01
3.009302102708e+01
3.009541309824e+01
3.009615649052e+01
3.009612704064e+01
3.009577941348e+01
3.009524733218e+01
3.009291784847e+01
3.008907694155e+01
3.009601369511e+01
3.009608707787e+01
3.009575992779e+01
3.009533863488e+01