# vtk DataFile Version 3.0
Unstructured Grid from OpenGeoSys
ASCII
DATASET UNSTRUCTURED_GRID
FIELD TimesAndCycles 2
TIME 1 1 double
3.600000000000e+03
CYLCE 1 1 long
1
POINTS 1394 double
0.000000000000e+00 0.000000000000e+00 0.000000000000e+00
5.000000000000e+00 0.000000000000e+00 0.000000000000e+00
5.000000000000e+00 5.000000000000e+00 0.000000000000e+00
0.000000000000e+00 5.000000000000e+00 0.000000000000e+00
2.244234909000e+00 2.244234909000e+00 0.000000000000e+00
2.755765091000e+00 2.244234909000e+00 0.000000000000e+00
2.755765091000e+00 2.755765091000e+00 0.000000000000e+00
2.244234909000e+00 2.755765091000e+00 0.000000000000e+00
7.141316008320e-01 7.141316008320e-01 0.000000000000e+00
1.314642334730e+00 1.314642334730e+00 0.000000000000e+00
1.819609643610e+00 1.819609643610e+00 0.000000000000e+00
1.819609643610e+00 3.180390356390e+00 0.000000000000e+00
1.314642334740e+00 3.685357665260e+00 0.000000000000e+00
7.141316008360e-01 4.285868399160e+00 0.000000000000e+00
0.000000000000e+00 3.750000000000e+00 0.000000000000e+00
0.000000000000e+00 2.500000000000e+00 0.000000000000e+00
0.000000000000e+00 1.250000000000e+00 0.000000000000e+00
4.285868399170e+00 7.141316008320e-01 0.000000000000e+00
3.685357665270e+00 1.314642334730e+00 0.000000000000e+00
3.180390356390e+00 1.819609643610e+00 0.000000000000e+00
1.250000000000e+00 0.000000000000e+00 0.000000000000e+00
2.500000000000e+00 0.000000000000e+00 0.000000000000e+00
3.750000000000e+00 0.000000000000e+00 0.000000000000e+00
4.285868399170e+00 4.285868399170e+00 0.000000000000e+00
3.685357665270e+00 3.685357665270e+00 0.000000000000e+00
3.180390356390e+00 3.180390356390e+00 0.000000000000e+00
5.000000000000e+00 1.250000000000e+00 0.000000000000e+00
5.000000000000e+00 2.500000000000e+00 0.000000000000e+00
5.000000000000e+00 3.750000000000e+00 0.000000000000e+00
3.750000000000e+00 5.000000000000e+00 0.000000000000e+00
2.500000000000e+00 5.000000000000e+00 0.000000000000e+00
1.250000000000e+00 5.000000000000e+00 0.000000000000e+00
9.560744151940e-01 2.677827143250e+00 0.000000000000e+00
6.659597640160e-01 1.438876720610e+00 0.000000000000e+00
2.309219871940e+00 9.522638293400e-01 0.000000000000e+00
3.458157207860e+00 6.354750772000e-01 0.000000000000e+00
4.043925584810e+00 2.322172856750e+00 0.000000000000e+00
4.334040235980e+00 3.561123279390e+00 0.000000000000e+00
2.318530875810e+00 4.048536535600e+00 0.000000000000e+00
3.552396921680e+00 4.370927842320e+00 0.000000000000e+00
2.500000000000e+00 2.500000000000e+00 0.000000000000e+00
0.000000000000e+00 0.000000000000e+00 -5.000000000000e-01
5.000000000000e+00 0.000000000000e+00 -5.000000000000e-01
5.000000000000e+00 5.000000000000e+00 -5.000000000000e-01
0.000000000000e+00 5.000000000000e+00 -5.000000000000e-01
2.244234909000e+00 2.244234909000e+00 -5.000000000000e-01
2.755765091000e+00 2.244234909000e+00 -5.000000000000e-01
2.755765091000e+00 2.755765091000e+00 -5.000000000000e-01
2.244234909000e+00 2.755765091000e+00 -5.000000000000e-01
7.141316008320e-01 7.141316008320e-01 -5.000000000000e-01
1.314642334730e+00 1.314642334730e+00 -5.000000000000e-01
1.819609643610e+00 1.819609643610e+00 -5.000000000000e-01
1.819609643610e+00 3.180390356390e+00 -5.000000000000e-01
1.314642334740e+00 3.685357665260e+00 -5.000000000000e-01
7.141316008360e-01 4.285868399160e+00 -5.000000000000e-01
0.000000000000e+00 3.750000000000e+00 -5.000000000000e-01
0.000000000000e+00 2.500000000000e+00 -5.000000000000e-01
0.000000000000e+00 1.250000000000e+00 -5.000000000000e-01
4.285868399170e+00 7.141316008320e-01 -5.000000000000e-01
3.685357665270e+00 1.314642334730e+00 -5.000000000000e-01
3.180390356390e+00 1.819609643610e+00 -5.000000000000e-01
1.250000000000e+00 0.000000000000e+00 -5.000000000000e-01
2.500000000000e+00 0.000000000000e+00 -5.000000000000e-01
3.750000000000e+00 0.000000000000e+00 -5.000000000000e-01
4.285868399170e+00 4.285868399170e+00 -5.000000000000e-01
3.685357665270e+00 3.685357665270e+00 -5.000000000000e-01
3.180390356390e+00 3.180390356390e+00 -5.000000000000e-01
5.000000000000e+00 1.250000000000e+00 -5.000000000000e-01
5.000000000000e+00 2.500000000000e+00 -5.000000000000e-01
5.000000000000e+00 3.750000000000e+00 -5.000000000000e-01
3.750000000000e+00 5.000000000000e+00 -5.000000000000e-01
2.500000000000e+00 5.000000000000e+00 -5.000000000000e-01
1.250000000000e+00 5.000000000000e+00 -5.000000000000e-01
9.560744151940e-01 2.677827143250e+00 -5.000000000000e-01
6.659597640160e-01 1.438876720610e+00 -5.000000000000e-01
2.309219871940e+00 9.522638293400e-01 -5.000000000000e-01
3.458157207860e+00 6.354750772000e-01 -5.000000000000e-01
4.043925584810e+00 2.322172856750e+00 -5.000000000000e-01
4.334040235980e+00 3.561123279390e+00 -5.000000000000e-01
2.318530875810e+00 4.048536535600e+00 -5.000000000000e-01
3.552396921680e+00 4.370927842320e+00 -5.000000000000e-01
2.500000000000e+00 2.500000000000e+00 -5.000000000000e-01
0.000000000000e+00 0.000000000000e+00 -1.000000000000e+00
5.000000000000e+00 0.000000000000e+00 -1.000000000000e+00
5.000000000000e+00 5.000000000000e+00 -1.000000000000e+00
0.000000000000e+00 5.000000000000e+00 -1.000000000000e+00
2.244234909000e+00 2.244234909000e+00 -1.000000000000e+00
2.755765091000e+00 2.244234909000e+00 -1.000000000000e+00
2.755765091000e+00 2.755765091000e+00 -1.000000000000e+00
2.244234909000e+00 2.755765091000e+00 -1.000000000000e+00
7.141316008320e-01 7.141316008320e-01 -1.000000000000e+00
1.314642334730e+00 1.314642334730e+00 -1.000000000000e+00
1.819609643610e+00 1.819609643610e+00 -1.000000000000e+00
1.819609643610e+00 3.180390356390e+00 -1.000000000000e+00
1.314642334740e+00 3.685357665260e+00 -1.000000000000e+00
7.141316008360e-01 4.285868399160e+00 -1.000000000000e+00
0.000000000000e+00 3.750000000000e+00 -1.000000000000e+00
0.000000000000e+00 2.500000000000e+00 -1.000000000000e+00
0.000000000000e+00 1.250000000000e+00 -1.000000000000e+00
4.285868399170e+00 7.141316008320e-01 -1.000000000000e+00
3.685357665270e+00 1.314642334730e+00 -1.000000000000e+00
3.180390356390e+00 1.819609643610e+00 -1.000000000000e+00
1.250000000000e+00 0.000000000000e+00 -1.000000000000e+00
2.500000000000e+00 0.000000000000e+00 -1.000000000000e+00
3.750000000000e+00 0.000000000000e+00 -1.000000000000e+00
4.285868399170e+00 4.285868399170e+00 -1.000000000000e+00
3.685357665270e+00 3.685357665270e+00 -1.000000000000e+00
3.180390356390e+00 3.180390356390e+00 -1.000000000000e+00
5.000000000000e+00 1.250000000000e+00 -1.000000000000e+00
5.000000000000e+00 2.500000000000e+00 -1.000000000000e+00
5.000000000000e+00 3.750000000000e+00 -1.000000000000e+00
3.750000000000e+00 5.000000000000e+00 -1.000000000000e+00
2.500000000000e+00 5.000000000000e+00 -1.000000000000e+00
1.250000000000e+00 5.000000000000e+00 -1.000000000000e+00
9.560744151940e-01 2.677827143250e+00 -1.000000000000e+00
6.659597640160e-01 1.438876720610e+00 -1.000000000000e+00
2.309219871940e+00 9.522638293400e-01 -1.000000000000e+00
3.458157207860e+00 6.354750772000e-01 -1.000000000000e+00
4.043925584810e+00 2.322172856750e+00 -1.000000000000e+00
4.334040235980e+00 3.561123279390e+00 -1.000000000000e+00
2.318530875810e+00 4.048536535600e+00 -1.000000000000e+00
3.552396921680e+00 4.370927842320e+00 -1.000000000000e+00
2.500000000000e+00 2.500000000000e+00 -1.000000000000e+00
0.000000000000e+00 0.000000000000e+00 -3.000000000000e+00
5.000000000000e+00 0.000000000000e+00 -3.000000000000e+00
5.000000000000e+00 5.000000000000e+00 -3.000000000000e+00
0.000000000000e+00 5.000000000000e+00 -3.000000000000e+00
2.244234909000e+00 2.244234909000e+00 -3.000000000000e+00
2.755765091000e+00 2.244234909000e+00 -3.000000000000e+00
2.755765091000e+00 2.755765091000e+00 -3.000000000000e+00
2.244234909000e+00 2.755765091000e+00 -3.000000000000e+00
7.141316008320e-01 7.141316008320e-01 -3.000000000000e+00
1.314642334730e+00 1.314642334730e+00 -3.000000000000e+00
1.819609643610e+00 1.819609643610e+00 -3.000000000000e+00
1.819609643610e+00 3.180390356390e+00 -3.000000000000e+00
1.314642334740e+00 3.685357665260e+00 -3.000000000000e+00
7.141316008360e-01 4.285868399160e+00 -3.000000000000e+00
0.000000000000e+00 3.750000000000e+00 -3.000000000000e+00
0.000000000000e+00 2.500000000000e+00 -3.000000000000e+00
0.000000000000e+00 1.250000000000e+00 -3.000000000000e+00
4.285868399170e+00 7.141316008320e-01 -3.000000000000e+00
3.685357665270e+00 1.314642334730e+00 -3.000000000000e+00
3.180390356390e+00 1.819609643610e+00 -3.000000000000e+00
1.250000000000e+00 0.000000000000e+00 -3.000000000000e+00
2.500000000000e+00 0.000000000000e+00 -3.000000000000e+00
3.750000000000e+00 0.000000000000e+00 -3.000000000000e+00
4.285868399170e+00 4.285868399170e+00 -3.000000000000e+00
3.685357665270e+00 3.685357665270e+00 -3.000000000000e+00
3.180390356390e+00 3.180390356390e+00 -3.000000000000e+00
5.000000000000e+00 1.250000000000e+00 -3.000000000000e+00
5.000000000000e+00 2.500000000000e+00 -3.000000000000e+00
5.000000000000e+00 3.750000000000e+00 -3.000000000000e+00
3.750000000000e+00 5.000000000000e+00 -3.000000000000e+00
2.500000000000e+00 5.000000000000e+00 -3.000000000000e+00
1.250000000000e+00 5.000000000000e+00 -3.000000000000e+00
9.560744151940e-01 2.677827143250e+00 -3.000000000000e+00
6.659597640160e-01 1.438876720610e+00 -3.000000000000e+00
2.309219871940e+00 9.522638293400e-01 -3.000000000000e+00
3.458157207860e+00 6.354750772000e-01 -3.000000000000e+00
4.043925584810e+00 2.322172856750e+00 -3.000000000000e+00
4.334040235980e+00 3.561123279390e+00 -3.000000000000e+00
2.318530875810e+00 4.048536535600e+00 -3.000000000000e+00
3.552396921680e+00 4.370927842320e+00 -3.000000000000e+00
2.500000000000e+00 2.500000000000e+00 -3.000000000000e+00
0.000000000000e+00 0.000000000000e+00 -5.000000000000e+00
5.000000000000e+00 0.000000000000e+00 -5.000000000000e+00
5.000000000000e+00 5.000000000000e+00 -5.000000000000e+00
0.000000000000e+00 5.000000000000e+00 -5.000000000000e+00
2.244234909000e+00 2.244234909000e+00 -5.000000000000e+00
[...]
POINT_DATA 1394
SCALARS TEMPERATURE1 double 1
LOOKUP_TABLE default
1.000000000000e+01
1.000000000000e+01
1.000000000000e+01
1.000000000000e+01
1.000000000000e+01
1.000000000000e+01
1.000000000000e+01
1.000000000000e+01
1.000000000000e+01
1.000000000000e+01
1.000000000000e+01
1.000000000000e+01
1.000000000000e+01
1.000000000000e+01
1.000000000000e+01
1.000000000000e+01
1.000000000000e+01
1.000000000000e+01
1.000000000000e+01
1.000000000000e+01
1.000000000000e+01
1.000000000000e+01
1.000000000000e+01
1.000000000000e+01
1.000000000000e+01
1.000000000000e+01
1.000000000000e+01
1.000000000000e+01
1.000000000000e+01
1.000000000000e+01
1.000000000000e+01
1.000000000000e+01
1.000000000000e+01
1.000000000000e+01
1.000000000000e+01
1.000000000000e+01
1.000000000000e+01
1.000000000000e+01
1.000000000000e+01
1.000000000000e+01
1.000000000000e+01
2.008306563585e+01
2.008146105703e+01
2.008091204517e+01
2.007674391674e+01
2.149849166712e+01
2.150860070232e+01
2.152296983342e+01
2.149051412571e+01
2.029127348213e+01
2.074062496687e+01
2.125283050392e+01
2.126623757144e+01
2.072781010736e+01
2.029333771907e+01
2.028385288987e+01
2.052529953293e+01
2.031854849278e+01
2.028993908883e+01
2.074047581806e+01
2.125486787426e+01
2.028511554961e+01
2.052602286300e+01
2.031353457929e+01
2.028190881082e+01
2.075758670485e+01
2.124583234784e+01
2.028247127826e+01
2.052598042554e+01
2.031917377954e+01
2.031825352457e+01
2.052583368580e+01
2.028376482747e+01
2.081314706753e+01
2.047881420668e+01
2.081037621563e+01
2.048876607728e+01
2.081294518061e+01
2.048394300592e+01
2.080962105722e+01
2.047288191892e+01
2.232884817634e+01
3.036719995798e+01
3.036332595612e+01
3.036029277337e+01
3.036667588844e+01
2.919515320515e+01
2.922776665793e+01
2.928671559921e+01
2.914066293244e+01
3.056088984796e+01
3.084410761179e+01
3.072312526871e+01
3.073193971768e+01
3.084697765168e+01
3.056172486140e+01
3.058525153030e+01
3.082003549104e+01
3.060609361562e+01
3.055857141386e+01
3.084616434579e+01
3.073687407939e+01
3.058433079921e+01
3.082014078066e+01
3.060205659924e+01
3.055777472200e+01
3.084745694926e+01
3.073196419957e+01
3.058230272061e+01
3.082207932669e+01
3.060519818232e+01
3.060420577263e+01
3.082094486137e+01
3.058590028944e+01
3.100720223617e+01
3.072926381292e+01
3.100415934429e+01
3.074286381929e+01
3.100663849546e+01
3.073204792173e+01
3.100596341598e+01
3.072560036712e+01
2.461288237299e+01
3.572997815932e+01
3.572592332813e+01
3.572652228301e+01
3.573156806352e+01
3.227312639017e+01
3.230874571703e+01
3.237060137835e+01
3.221478740491e+01
3.582222945313e+01
3.574807835326e+01
3.488801350364e+01
3.488149867226e+01
3.577018287114e+01
3.582389775872e+01
3.587449399706e+01
3.599154259529e+01
3.586019887035e+01
3.581959706763e+01
3.575205304639e+01
3.490622298511e+01
3.587203563028e+01
3.599025777963e+01
3.585921033575e+01
3.582527080996e+01
3.573344623595e+01
3.491472172772e+01
3.587105710405e+01
3.599296163445e+01
3.585878219624e+01
3.585839942583e+01
3.599193982807e+01
3.587503969301e+01
3.594922956470e+01
3.588806544847e+01
3.594794885121e+01
3.589992008157e+01
3.595035068990e+01
3.588604152476e+01
3.595253946406e+01
3.588868449158e+01
2.537202524123e+01
3.867015402390e+01
3.866617648295e+01
3.866774099623e+01
3.867384081933e+01
3.412550310968e+01
3.416329167652e+01
3.422819567748e+01
3.406354072475e+01
3.869883736056e+01
3.842961329731e+01
3.722798980302e+01
3.721488909105e+01
3.846037666092e+01
3.870058329457e+01
3.876562937789e+01
3.880787914794e+01
3.873320891436e+01
3.869619698427e+01
3.843420683038e+01
3.724777781916e+01
3.876224897023e+01
3.880619102543e+01
3.873398305810e+01
3.870547997334e+01
3.840591902134e+01
3.726114765649e+01
3.876206451593e+01
3.880930499093e+01
3.873120584323e+01
3.873130978175e+01
3.880812392352e+01
3.876618794717e+01
3.863477106939e+01
3.870192269399e+01
3.863447895914e+01
3.871200871544e+01
3.863663714440e+01
3.869736001543e+01
3.864035562117e+01
3.870505984305e+01
2.612092216919e+01
4.003869560091e+01
4.003489237642e+01
4.003718094615e+01
4.004297074545e+01
3.499944508806e+01
3.503781361860e+01
3.510333668176e+01
3.493650708912e+01
4.003636710866e+01
3.967625731512e+01
3.831614473945e+01
3.829975464296e+01
3.971110711991e+01
4.003809174285e+01
4.010860588355e+01
4.011441713789e+01
4.006783744183e+01
4.003378772755e+01
3.968115357066e+01
3.833659351222e+01
4.010495639742e+01
4.011252027857e+01
4.006947104770e+01
4.004466753057e+01
3.964826838521e+01
3.835244487708e+01
4.010514057859e+01
4.011574043938e+01
4.006566137397e+01
4.006598810778e+01
4.011454444404e+01
4.010912709779e+01
3.988249156722e+01
4.000929875240e+01
3.988269275345e+01
4.001841173381e+01
3.988466523396e+01
4.000352367150e+01
3.988908171989e+01
4.001353754247e+01
2.653570226170e+01
4.061088465844e+01
4.060716189248e+01
4.060967560420e+01
4.061542931822e+01
3.539112558368e+01
3.542955111526e+01
3.549500551089e+01
3.532810323543e+01
4.059567342189e+01
4.019888586354e+01
3.877951561615e+01
3.876184652088e+01
4.023523384896e+01
4.059737965620e+01
4.067009231875e+01
4.066067255196e+01
4.062597040531e+01
4.059312884335e+01
4.020388091907e+01
3.880011951886e+01
4.066633831287e+01
4.065871710472e+01
4.062796264887e+01
4.060460810653e+01
4.016924563250e+01
3.881689144775e+01
4.066668083900e+01
4.066196925299e+01
4.062370269405e+01
4.062412264633e+01
4.066074878232e+01
4.067059846026e+01
4.040444007771e+01
4.055609336804e+01
4.040485902125e+01
4.056477781563e+01
4.040675468435e+01
4.054983081056e+01
4.041142891499e+01
4.056078037137e+01
2.678589348346e+01
4.082853209654e+01
4.082484678895e+01
4.082745816237e+01
4.083314563335e+01
3.554150090886e+01
3.557994101580e+01
3.564537509357e+01
3.547842031877e+01
4.080856450100e+01
4.039815352236e+01
3.895660743276e+01
3.893845325906e+01
4.043506150880e+01
4.081026287617e+01
4.088376721462e+01
4.086870535131e+01
4.083839041656e+01
4.080603513772e+01
4.040318744249e+01
3.897726769926e+01
4.087998621821e+01
4.086673114496e+01
4.084051814318e+01
4.081772440952e+01
4.036789257187e+01
3.899438353567e+01
4.088038607204e+01
4.086998963272e+01
4.083609023898e+01
4.083654484768e+01
4.086875861939e+01
4.088426394079e+01
4.060349143058e+01
4.076434940410e+01
4.060399660353e+01
4.077287673792e+01
4.060586448764e+01
4.075790070414e+01
4.061062872014e+01
4.076919599383e+01
2.687798869591e+01
4.063385186859e+01
4.063018307543e+01
4.063253176934e+01
4.063829256189e+01
3.561871753889e+01
3.565548906482e+01
3.571814127861e+01
3.555834595086e+01
4.062185025549e+01
4.023892651670e+01
3.887139313547e+01
3.885435339559e+01
4.027385614953e+01
4.062368928634e+01
4.069530524864e+01
4.068868588233e+01
4.065220424433e+01
4.061932591048e+01
4.024373793516e+01
3.889109877993e+01
4.069159444047e+01
4.068684451922e+01
4.065409352960e+01
4.063023002405e+01
4.021050015244e+01
3.890726630607e+01
4.069189471498e+01
4.069000844442e+01
4.064991885115e+01
4.065034679959e+01
4.068876345452e+01
4.069578957410e+01
4.043807032053e+01
4.058516276167e+01
4.043850742185e+01
4.059376690419e+01
4.044049234577e+01
4.057909283023e+01
4.044492511649e+01
4.058971115975e+01
2.740058013493e+01
4.034157903180e+01
4.033791214455e+01
4.034000312034e+01
4.034579644511e+01
3.559679563001e+01
3.563215482463e+01
3.569249140552e+01
3.553871410372e+01
4.033917031851e+01
3.998801267649e+01
3.869655613094e+01
3.868074895745e+01
4.002093677058e+01
4.034112511163e+01
4.041053577912e+01
4.041446478065e+01
4.037016068623e+01
4.033664601503e+01
3.999261408096e+01
3.871542902223e+01
4.040691553521e+01
4.041274474679e+01
4.037176630907e+01
4.034675507051e+01
3.996150834347e+01
3.873058961712e+01
4.040709534527e+01
4.041581862966e+01
4.036791774340e+01
4.036830084741e+01
4.041457404145e+01
4.041101204583e+01
4.018206775006e+01
4.031167936539e+01
4.018239447532e+01
4.032043505291e+01
4.018448819084e+01
4.030604359975e+01
4.018858569214e+01
4.031586893433e+01
2.777997411693e+01
4.013020848784e+01
4.012654995504e+01
4.012844207954e+01
4.013425372482e+01
3.559751717254e+01
3.563173262236e+01
3.569018438100e+01
3.554129490277e+01
4.013493645060e+01
3.980799539126e+01
3.857593484146e+01
3.856107478416e+01
3.983935257291e+01
4.013697850587e+01
4.020464587014e+01
4.021638240649e+01
4.016635529701e+01
4.013241634212e+01
3.981242967202e+01
3.859413732872e+01
4.020109823593e+01
4.021475833619e+01
4.016774763051e+01
4.014190766776e+01
3.978297926173e+01
3.860851658655e+01
4.020118822622e+01
4.021775879734e+01
4.016414503027e+01
4.016449526890e+01
4.021651468331e+01
4.020511475973e+01
3.999780902446e+01
4.011431161434e+01
3.999805575023e+01
4.012316317300e+01
4.000022992159e+01
4.010900805850e+01
4.000406706317e+01
4.011822812541e+01
2.810072945118e+01
3.995839266712e+01
3.995474272681e+01
3.995647236696e+01
3.996229251970e+01
3.559983266224e+01
3.563312688738e+01
3.569006451599e+01
3.554510572926e+01
3.996899076228e+01
3.966215989894e+01
3.847908900071e+01
3.846501517753e+01
3.969222751681e+01
3.997109849170e+01
4.003728228058e+01
4.005546279296e+01
4.000073930966e+01
3.996647583786e+01
3.966645691491e+01
3.849674774398e+01
4.003379783313e+01
4.005391675711e+01
4.000195526930e+01
3.997546176796e+01
3.963836868729e+01
3.851047812134e+01
4.003381391444e+01
4.005685605082e+01
3.999855900565e+01
3.999888103138e+01
4.005561411504e+01
4.003774525986e+01
3.984849139443e+01
3.995404365974e+01
3.984867014528e+01
3.996297119104e+01
3.985090640690e+01
3.994901635553e+01
3.985453049531e+01
3.995773217599e+01
2.836285429287e+01
3.983000853686e+01
3.982636769342e+01
3.982797312531e+01
3.983379421898e+01
3.560572786922e+01
3.563831764362e+01
3.569409874506e+01
3.555214338677e+01
3.984506705828e+01
3.955377069346e+01
3.840858311662e+01
3.839511806102e+01
3.958284286342e+01
3.984722058677e+01
3.991222128989e+01
3.993530605420e+01
3.987704117625e+01
3.984255812719e+01
3.955796134954e+01
3.842582398302e+01
3.990878829286e+01
3.993381979698e+01
3.987812197891e+01
3.985115677714e+01
3.953092257552e+01
3.843905024369e+01
3.990874815869e+01
3.993671080804e+01
3.987488605079e+01
3.987518589761e+01
3.993547184488e+01
3.991267963548e+01
3.973736941510e+01
3.983446061106e+01
3.973749536112e+01
3.984344043231e+01
3.973977581026e+01
3.982964724406e+01
3.974323662816e+01
3.983797228891e+01
2.856793126064e+01
3.974251726567e+01
3.973888545949e+01
3.974040309392e+01
3.974621957666e+01
3.561413533903e+01
3.564622826634e+01
3.570119540872e+01
3.556135496619e+01
3.976069063096e+01
3.948050939985e+01
3.836248679638e+01
3.834945921151e+01
3.950886946649e+01
3.976287190177e+01
3.982698858937e+01
3.985350564761e+01
3.979279677644e+01
3.975818803786e+01
3.948462350573e+01
3.837943048744e+01
3.982359505394e+01
3.985206174506e+01
3.979378200018e+01
3.976651266727e+01
3.945833320661e+01
3.839229247152e+01
3.982351562819e+01
3.985491714844e+01
3.979066164493e+01
3.979094526647e+01
3.985368155977e+01
3.982744355770e+01
3.966210483186e+01
3.975314269387e+01
3.966219273502e+01
3.976215328445e+01
3.966450098151e+01
3.974848297882e+01
3.966784624364e+01
3.975652716563e+01
2.871741668007e+01
3.969057151511e+01
3.968694770629e+01
3.968841056959e+01
3.969421867574e+01
3.562272049016e+01
3.565451358284e+01
3.570899429496e+01
3.557042069873e+01
3.971067318219e+01
3.943763905117e+01
3.833695485115e+01
3.832421022272e+01
3.946554705923e+01
3.971286591963e+01
3.977637440451e+01
3.980503245060e+01
3.974283439507e+01
3.970817668501e+01
3.944170436662e+01
3.835371508537e+01
3.977300900879e+01
3.980361464180e+01
3.974375915879e+01
3.971633104775e+01
3.941588787966e+01
3.836633989959e+01
3.977290523390e+01
3.980644653763e+01
3.974071469057e+01
3.974098720638e+01
3.980521478586e+01
3.977682733874e+01
3.961793697291e+01
3.970505133128e+01
3.961799940250e+01
3.971407587657e+01
3.962032093306e+01
3.970049105676e+01
3.962359432274e+01
3.970835313599e+01
2.881270923925e+01
3.970029007797e+01
3.969667748197e+01
3.969813254318e+01
3.970392355636e+01
3.564549896865e+01
3.567721300216e+01
3.573156188008e+01
3.559332582023e+01
3.972041164301e+01
3.944844256926e+01
3.835147958296e+01
3.833878654771e+01
3.947625533764e+01
3.972259609001e+01
3.978590068465e+01
3.981456677838e+01
3.975248619279e+01
3.971792297748e+01
3.945249457829e+01
3.836818976789e+01
3.978254735870e+01
3.981315495584e+01
3.975340627783e+01
3.972604858816e+01
3.942676602276e+01
3.838076139470e+01
3.978244315473e+01
3.981597773548e+01
3.975037246906e+01
3.975064376489e+01
3.981474872128e+01
3.978635216931e+01
3.962819322723e+01
3.971488468694e+01
3.962825463106e+01
3.972388494999e+01
3.963056943132e+01
3.971034100472e+01
3.963383066712e+01
3.971817314037e+01
2.885557739649e+01
3.969363250603e+01
3.969002207079e+01
3.969147393822e+01
3.969726097619e+01
3.564093708456e+01
3.567264065405e+01
3.572699797346e+01
3.558873301262e+01
3.971377489067e+01
3.944203610862e+01
3.834573303844e+01
3.833305219683e+01
3.946983053450e+01
3.971595599621e+01
3.977921978085e+01
3.980791227273e+01
3.974583289659e+01
3.971128788011e+01
3.944608664845e+01
3.836243517145e+01
3.977587047653e+01
3.980650227443e+01
3.974675253670e+01
3.971940632758e+01
3.942037345934e+01
3.837499150943e+01
3.977576590201e+01
3.980932271560e+01
3.974372008291e+01
3.974399027001e+01
3.980809324243e+01
3.977967069261e+01
3.962170619745e+01
3.970828342042e+01
3.962176874247e+01
3.971728104292e+01
3.962408269906e+01
3.970374242148e+01
3.962733988489e+01
3.971156762390e+01
2.885081054792e+01
3.958011519126e+01
3.957649119261e+01
3.957787532673e+01
3.958367204913e+01
3.556629921102e+01
3.559798830347e+01
3.565222911321e+01
3.551434218037e+01
3.960302994798e+01
3.933919895447e+01
3.825549166504e+01
3.824306203776e+01
3.936666600990e+01
3.960519721247e+01
3.966799389323e+01
3.969997780999e+01
3.963534983051e+01
3.960054036173e+01
3.934323129492e+01
3.827217364154e+01
3.966468210388e+01
3.969859203692e+01
3.963619793906e+01
3.960851990640e+01
3.931787691688e+01
3.828455535486e+01
3.966454610100e+01
3.970140165979e+01
3.963324859082e+01
3.963349616355e+01
3.970016566846e+01
3.966844774067e+01
3.951903712779e+01
3.960023349299e+01
3.951905903176e+01
3.960933017736e+01
3.952138111409e+01
3.959579349856e+01
3.952457623306e+01
3.960341333065e+01
2.882096154419e+01
3.909435463915e+01
3.909069856667e+01
3.909175779396e+01
3.909763906205e+01
3.528256572399e+01
3.531377933729e+01
3.536782037215e+01
3.523047109897e+01
3.912835412043e+01
3.889706249846e+01
3.787603628986e+01
3.786486439574e+01
3.892284417464e+01
3.913053028334e+01
3.919144146770e+01
3.923621990644e+01
3.916170488528e+01
3.912585597342e+01
3.890096868186e+01
3.789228032287e+01
3.918826543428e+01
3.923495622566e+01
3.916227111369e+01
3.913312234061e+01
3.887740070278e+01
3.790357620536e+01
3.918799886589e+01
3.923768974313e+01
3.915963063245e+01
3.915979887305e+01
3.923642122024e+01
3.919189115004e+01
3.907532074091e+01
3.913618061974e+01
3.907522857173e+01
3.914562233491e+01
3.907764920263e+01
3.913215059009e+01
3.908051740219e+01
3.913894341630e+01
2.870736237228e+01
3.775517321482e+01
3.775180075917e+01
3.775264623257e+01
3.775731015381e+01
3.435128192159e+01
3.438151582244e+01
3.443208762408e+01
3.430447643081e+01
3.780580968887e+01
3.764568980643e+01
3.675398269380e+01
3.674491366090e+01
3.766834034039e+01
3.780744613652e+01
3.785984867854e+01
3.792514454778e+01
3.783789724822e+01
3.780354270384e+01
3.764934627015e+01
3.676988027017e+01
3.785736670179e+01
3.792407059397e+01
3.783794609651e+01
3.780967653202e+01
3.762895847048e+01
3.677977918240e+01
3.785692656957e+01
3.792652971114e+01
3.783617759584e+01
3.783616655173e+01
3.792537319431e+01
3.786028055094e+01
3.781829929408e+01
3.783234299415e+01
3.781781512069e+01
3.784186490494e+01
3.781988329155e+01
3.782923903192e+01
3.782231307821e+01
3.783408143892e+01
2.839729425557e+01
3.534703144830e+01
3.534493221890e+01
3.534472395512e+01
3.534799437768e+01
3.339002210209e+01
3.341680379857e+01
3.347125648237e+01
3.333227605850e+01
3.540130228250e+01
3.538467726032e+01
3.496499042168e+01
3.496537444537e+01
3.539535003890e+01
3.540182752503e+01
3.542736820357e+01
3.549616361092e+01
3.542265055819e+01
3.539991775520e+01
3.538655736227e+01
3.497505128217e+01
3.542613714659e+01
3.549563100023e+01
3.542192951613e+01
3.540299471363e+01
3.537753903683e+01
3.497402815362e+01
3.542553476987e+01
3.549704432276e+01
3.542183216242e+01
3.542163555451e+01
3.549643555672e+01
3.542762516584e+01
3.548975521692e+01
3.544216183064e+01
3.548901720508e+01
3.544853175903e+01
3.549048921611e+01
3.544136776592e+01
3.549145654387e+01
3.544221920018e+01
2.854435530206e+01
3.465408940394e+01
3.465238107984e+01
3.465213640210e+01
3.465468578380e+01
3.431562321115e+01
3.431441113182e+01
3.429846031357e+01
3.434276702843e+01
3.470589391388e+01
3.472727501135e+01
3.457322598030e+01
3.456895660448e+01
3.473115129306e+01
3.470745544575e+01
3.472472181379e+01
3.478525124720e+01
3.472212047476e+01
3.470484128656e+01
3.472833645296e+01
3.457697256074e+01
3.472365899486e+01
3.478503909189e+01
3.472124225043e+01
3.470484250479e+01
3.472626642750e+01
3.458496886058e+01
3.472317024640e+01
3.478597194624e+01
3.472152541021e+01
3.472137058405e+01
3.478552610290e+01
3.472503121978e+01
3.478666960291e+01
3.474502033686e+01
3.478591344911e+01
3.474970515777e+01
3.478686623297e+01
3.474506544219e+01
3.478712529767e+01
3.474492309198e+01
3.505721759012e+01
3.396499644510e+01
3.396373367761e+01
3.396317323510e+01
3.396555527329e+01
3.408430173908e+01
3.408189390488e+01
3.407860660129e+01
3.408692281533e+01
3.401025178188e+01
3.405512729251e+01
3.406114593606e+01
3.406139615160e+01
3.405457394420e+01
3.401196770703e+01
3.402259785079e+01
3.407326400001e+01
3.402238861154e+01
3.400938342974e+01
3.405544840703e+01
3.406145307767e+01
3.402163191717e+01
3.407320330355e+01
3.402148358571e+01
3.400814272501e+01
3.405752771710e+01
3.406287704327e+01
3.402106246489e+01
3.407370330219e+01
3.402198054466e+01
3.402184967977e+01
3.407344100503e+01
3.402272051819e+01
3.408373110680e+01
3.404535885672e+01
3.408337709908e+01
3.404859093782e+01
3.408473751347e+01
3.404580064875e+01
3.408422547540e+01
3.404504417887e+01
3.393163157194e+01
3.330485115519e+01
3.330392091903e+01
3.330326191354e+01
3.330541479465e+01
3.343057280525e+01
3.343140226627e+01
3.343344787295e+01
3.342858010772e+01
3.334067207439e+01
3.338950565876e+01
3.342732968503e+01
3.342885278088e+01
3.338830366597e+01
3.334177850521e+01
3.334791099039e+01
3.338849432883e+01
3.334972901639e+01
3.334006271567e+01
3.338958296380e+01
3.342753743516e+01
3.334721567967e+01
3.338848723261e+01
3.334891141779e+01
3.333912791180e+01
3.339191418284e+01
3.342691804134e+01
3.334676539455e+01
3.338885553008e+01
3.334945300886e+01
3.334934254676e+01
3.338868912965e+01
3.334802634233e+01
3.340762661571e+01
3.336982553708e+01
3.340723398463e+01
3.337212058644e+01
3.340820884488e+01
3.337044430829e+01
3.340778761900e+01
3.336947077698e+01
3.346151809423e+01
3.269522293152e+01
3.269458090516e+01
3.269422378226e+01
3.269551537516e+01
3.280558290538e+01
3.280600511334e+01
3.280677568832e+01
3.280524765854e+01
3.272181171505e+01
3.276250357426e+01
3.279602297158e+01
3.279717323627e+01
3.276157244354e+01
3.272256641577e+01
3.272590199314e+01
3.275629877751e+01
3.272791080151e+01
3.272139270006e+01
3.276254697674e+01
3.279629198680e+01
3.272544806847e+01
3.275625957737e+01
3.272726441104e+01
3.272074219906e+01
3.276436838267e+01
3.279598085571e+01
3.272510858536e+01
3.275652063374e+01
3.272780072851e+01
3.272770957322e+01
3.275646309451e+01
3.272598990327e+01
3.277560899344e+01
3.274403507061e+01
3.277524330762e+01
3.274563344888e+01
3.277587058686e+01
3.274457084756e+01
3.277560204192e+01
3.274370823633e+01
3.280531800030e+01
3.092709319975e+01
3.092699981632e+01
3.092705470621e+01
3.092719802143e+01
3.093994224585e+01
3.094000605272e+01
3.094018046012e+01
3.093980803787e+01
3.092986187611e+01
3.093455585011e+01
3.093880911300e+01
3.093898220336e+01
3.093450201585e+01
3.093001209472e+01
3.093021676842e+01
3.093337320371e+01
3.093042767818e+01
3.092979576149e+01
3.093454460195e+01
3.093882866140e+01
3.093010010798e+01
3.093331417071e+01
3.093032423238e+01
3.092979877389e+01