# vtk DataFile Version 3.0
Unstructured Grid from OpenGeoSys
ASCII
DATASET UNSTRUCTURED_GRID
FIELD TimesAndCycles 2
TIME 1 1 double
3.600000000000e+03
CYLCE 1 1 long
1
POINTS 1394 double
0.000000000000e+00 0.000000000000e+00 0.000000000000e+00
5.000000000000e+00 0.000000000000e+00 0.000000000000e+00
5.000000000000e+00 5.000000000000e+00 0.000000000000e+00
0.000000000000e+00 5.000000000000e+00 0.000000000000e+00
2.244234909000e+00 2.244234909000e+00 0.000000000000e+00
2.755765091000e+00 2.244234909000e+00 0.000000000000e+00
2.755765091000e+00 2.755765091000e+00 0.000000000000e+00
2.244234909000e+00 2.755765091000e+00 0.000000000000e+00
7.141316008320e-01 7.141316008320e-01 0.000000000000e+00
1.314642334730e+00 1.314642334730e+00 0.000000000000e+00
1.819609643610e+00 1.819609643610e+00 0.000000000000e+00
1.819609643610e+00 3.180390356390e+00 0.000000000000e+00
1.314642334740e+00 3.685357665260e+00 0.000000000000e+00
7.141316008360e-01 4.285868399160e+00 0.000000000000e+00
0.000000000000e+00 3.750000000000e+00 0.000000000000e+00
0.000000000000e+00 2.500000000000e+00 0.000000000000e+00
0.000000000000e+00 1.250000000000e+00 0.000000000000e+00
4.285868399170e+00 7.141316008320e-01 0.000000000000e+00
3.685357665270e+00 1.314642334730e+00 0.000000000000e+00
3.180390356390e+00 1.819609643610e+00 0.000000000000e+00
1.250000000000e+00 0.000000000000e+00 0.000000000000e+00
2.500000000000e+00 0.000000000000e+00 0.000000000000e+00
3.750000000000e+00 0.000000000000e+00 0.000000000000e+00
4.285868399170e+00 4.285868399170e+00 0.000000000000e+00
3.685357665270e+00 3.685357665270e+00 0.000000000000e+00
3.180390356390e+00 3.180390356390e+00 0.000000000000e+00
5.000000000000e+00 1.250000000000e+00 0.000000000000e+00
5.000000000000e+00 2.500000000000e+00 0.000000000000e+00
5.000000000000e+00 3.750000000000e+00 0.000000000000e+00
3.750000000000e+00 5.000000000000e+00 0.000000000000e+00
2.500000000000e+00 5.000000000000e+00 0.000000000000e+00
1.250000000000e+00 5.000000000000e+00 0.000000000000e+00
9.560744151940e-01 2.677827143250e+00 0.000000000000e+00
6.659597640160e-01 1.438876720610e+00 0.000000000000e+00
2.309219871940e+00 9.522638293400e-01 0.000000000000e+00
3.458157207860e+00 6.354750772000e-01 0.000000000000e+00
4.043925584810e+00 2.322172856750e+00 0.000000000000e+00
4.334040235980e+00 3.561123279390e+00 0.000000000000e+00
2.318530875810e+00 4.048536535600e+00 0.000000000000e+00
3.552396921680e+00 4.370927842320e+00 0.000000000000e+00
2.500000000000e+00 2.500000000000e+00 0.000000000000e+00
0.000000000000e+00 0.000000000000e+00 -5.000000000000e-01
5.000000000000e+00 0.000000000000e+00 -5.000000000000e-01
5.000000000000e+00 5.000000000000e+00 -5.000000000000e-01
0.000000000000e+00 5.000000000000e+00 -5.000000000000e-01
2.244234909000e+00 2.244234909000e+00 -5.000000000000e-01
2.755765091000e+00 2.244234909000e+00 -5.000000000000e-01
2.755765091000e+00 2.755765091000e+00 -5.000000000000e-01
2.244234909000e+00 2.755765091000e+00 -5.000000000000e-01
7.141316008320e-01 7.141316008320e-01 -5.000000000000e-01
1.314642334730e+00 1.314642334730e+00 -5.000000000000e-01
1.819609643610e+00 1.819609643610e+00 -5.000000000000e-01
1.819609643610e+00 3.180390356390e+00 -5.000000000000e-01
1.314642334740e+00 3.685357665260e+00 -5.000000000000e-01
7.141316008360e-01 4.285868399160e+00 -5.000000000000e-01
0.000000000000e+00 3.750000000000e+00 -5.000000000000e-01
0.000000000000e+00 2.500000000000e+00 -5.000000000000e-01
0.000000000000e+00 1.250000000000e+00 -5.000000000000e-01
4.285868399170e+00 7.141316008320e-01 -5.000000000000e-01
3.685357665270e+00 1.314642334730e+00 -5.000000000000e-01
3.180390356390e+00 1.819609643610e+00 -5.000000000000e-01
1.250000000000e+00 0.000000000000e+00 -5.000000000000e-01
2.500000000000e+00 0.000000000000e+00 -5.000000000000e-01
3.750000000000e+00 0.000000000000e+00 -5.000000000000e-01
4.285868399170e+00 4.285868399170e+00 -5.000000000000e-01
3.685357665270e+00 3.685357665270e+00 -5.000000000000e-01
3.180390356390e+00 3.180390356390e+00 -5.000000000000e-01
5.000000000000e+00 1.250000000000e+00 -5.000000000000e-01
5.000000000000e+00 2.500000000000e+00 -5.000000000000e-01
5.000000000000e+00 3.750000000000e+00 -5.000000000000e-01
3.750000000000e+00 5.000000000000e+00 -5.000000000000e-01
2.500000000000e+00 5.000000000000e+00 -5.000000000000e-01
1.250000000000e+00 5.000000000000e+00 -5.000000000000e-01
9.560744151940e-01 2.677827143250e+00 -5.000000000000e-01
6.659597640160e-01 1.438876720610e+00 -5.000000000000e-01
2.309219871940e+00 9.522638293400e-01 -5.000000000000e-01
3.458157207860e+00 6.354750772000e-01 -5.000000000000e-01
4.043925584810e+00 2.322172856750e+00 -5.000000000000e-01
4.334040235980e+00 3.561123279390e+00 -5.000000000000e-01
2.318530875810e+00 4.048536535600e+00 -5.000000000000e-01
3.552396921680e+00 4.370927842320e+00 -5.000000000000e-01
2.500000000000e+00 2.500000000000e+00 -5.000000000000e-01
0.000000000000e+00 0.000000000000e+00 -1.000000000000e+00
5.000000000000e+00 0.000000000000e+00 -1.000000000000e+00
5.000000000000e+00 5.000000000000e+00 -1.000000000000e+00
0.000000000000e+00 5.000000000000e+00 -1.000000000000e+00
2.244234909000e+00 2.244234909000e+00 -1.000000000000e+00
2.755765091000e+00 2.244234909000e+00 -1.000000000000e+00
2.755765091000e+00 2.755765091000e+00 -1.000000000000e+00
2.244234909000e+00 2.755765091000e+00 -1.000000000000e+00
7.141316008320e-01 7.141316008320e-01 -1.000000000000e+00
1.314642334730e+00 1.314642334730e+00 -1.000000000000e+00
1.819609643610e+00 1.819609643610e+00 -1.000000000000e+00
1.819609643610e+00 3.180390356390e+00 -1.000000000000e+00
1.314642334740e+00 3.685357665260e+00 -1.000000000000e+00
7.141316008360e-01 4.285868399160e+00 -1.000000000000e+00
0.000000000000e+00 3.750000000000e+00 -1.000000000000e+00
0.000000000000e+00 2.500000000000e+00 -1.000000000000e+00
0.000000000000e+00 1.250000000000e+00 -1.000000000000e+00
4.285868399170e+00 7.141316008320e-01 -1.000000000000e+00
3.685357665270e+00 1.314642334730e+00 -1.000000000000e+00
3.180390356390e+00 1.819609643610e+00 -1.000000000000e+00
1.250000000000e+00 0.000000000000e+00 -1.000000000000e+00
2.500000000000e+00 0.000000000000e+00 -1.000000000000e+00
3.750000000000e+00 0.000000000000e+00 -1.000000000000e+00
4.285868399170e+00 4.285868399170e+00 -1.000000000000e+00
3.685357665270e+00 3.685357665270e+00 -1.000000000000e+00
3.180390356390e+00 3.180390356390e+00 -1.000000000000e+00
5.000000000000e+00 1.250000000000e+00 -1.000000000000e+00
5.000000000000e+00 2.500000000000e+00 -1.000000000000e+00
5.000000000000e+00 3.750000000000e+00 -1.000000000000e+00
3.750000000000e+00 5.000000000000e+00 -1.000000000000e+00
2.500000000000e+00 5.000000000000e+00 -1.000000000000e+00
1.250000000000e+00 5.000000000000e+00 -1.000000000000e+00
9.560744151940e-01 2.677827143250e+00 -1.000000000000e+00
6.659597640160e-01 1.438876720610e+00 -1.000000000000e+00
2.309219871940e+00 9.522638293400e-01 -1.000000000000e+00
3.458157207860e+00 6.354750772000e-01 -1.000000000000e+00
4.043925584810e+00 2.322172856750e+00 -1.000000000000e+00
4.334040235980e+00 3.561123279390e+00 -1.000000000000e+00
2.318530875810e+00 4.048536535600e+00 -1.000000000000e+00
3.552396921680e+00 4.370927842320e+00 -1.000000000000e+00
2.500000000000e+00 2.500000000000e+00 -1.000000000000e+00
0.000000000000e+00 0.000000000000e+00 -3.000000000000e+00
5.000000000000e+00 0.000000000000e+00 -3.000000000000e+00
5.000000000000e+00 5.000000000000e+00 -3.000000000000e+00
0.000000000000e+00 5.000000000000e+00 -3.000000000000e+00
2.244234909000e+00 2.244234909000e+00 -3.000000000000e+00
2.755765091000e+00 2.244234909000e+00 -3.000000000000e+00
2.755765091000e+00 2.755765091000e+00 -3.000000000000e+00
2.244234909000e+00 2.755765091000e+00 -3.000000000000e+00
7.141316008320e-01 7.141316008320e-01 -3.000000000000e+00
1.314642334730e+00 1.314642334730e+00 -3.000000000000e+00
1.819609643610e+00 1.819609643610e+00 -3.000000000000e+00
1.819609643610e+00 3.180390356390e+00 -3.000000000000e+00
1.314642334740e+00 3.685357665260e+00 -3.000000000000e+00
7.141316008360e-01 4.285868399160e+00 -3.000000000000e+00
0.000000000000e+00 3.750000000000e+00 -3.000000000000e+00
0.000000000000e+00 2.500000000000e+00 -3.000000000000e+00
0.000000000000e+00 1.250000000000e+00 -3.000000000000e+00
4.285868399170e+00 7.141316008320e-01 -3.000000000000e+00
3.685357665270e+00 1.314642334730e+00 -3.000000000000e+00
3.180390356390e+00 1.819609643610e+00 -3.000000000000e+00
1.250000000000e+00 0.000000000000e+00 -3.000000000000e+00
2.500000000000e+00 0.000000000000e+00 -3.000000000000e+00
3.750000000000e+00 0.000000000000e+00 -3.000000000000e+00
4.285868399170e+00 4.285868399170e+00 -3.000000000000e+00
3.685357665270e+00 3.685357665270e+00 -3.000000000000e+00
3.180390356390e+00 3.180390356390e+00 -3.000000000000e+00
5.000000000000e+00 1.250000000000e+00 -3.000000000000e+00
5.000000000000e+00 2.500000000000e+00 -3.000000000000e+00
5.000000000000e+00 3.750000000000e+00 -3.000000000000e+00
3.750000000000e+00 5.000000000000e+00 -3.000000000000e+00
2.500000000000e+00 5.000000000000e+00 -3.000000000000e+00
1.250000000000e+00 5.000000000000e+00 -3.000000000000e+00
9.560744151940e-01 2.677827143250e+00 -3.000000000000e+00
6.659597640160e-01 1.438876720610e+00 -3.000000000000e+00
2.309219871940e+00 9.522638293400e-01 -3.000000000000e+00
3.458157207860e+00 6.354750772000e-01 -3.000000000000e+00
4.043925584810e+00 2.322172856750e+00 -3.000000000000e+00
4.334040235980e+00 3.561123279390e+00 -3.000000000000e+00
2.318530875810e+00 4.048536535600e+00 -3.000000000000e+00
3.552396921680e+00 4.370927842320e+00 -3.000000000000e+00
2.500000000000e+00 2.500000000000e+00 -3.000000000000e+00
0.000000000000e+00 0.000000000000e+00 -5.000000000000e+00
5.000000000000e+00 0.000000000000e+00 -5.000000000000e+00
5.000000000000e+00 5.000000000000e+00 -5.000000000000e+00
0.000000000000e+00 5.000000000000e+00 -5.000000000000e+00
2.244234909000e+00 2.244234909000e+00 -5.000000000000e+00
[...]
POINT_DATA 1394
SCALARS TEMPERATURE1 double 1
LOOKUP_TABLE default
1.000000000000e+01
1.000000000000e+01
1.000000000000e+01
1.000000000000e+01
1.000000000000e+01
1.000000000000e+01
1.000000000000e+01
1.000000000000e+01
1.000000000000e+01
1.000000000000e+01
1.000000000000e+01
1.000000000000e+01
1.000000000000e+01
1.000000000000e+01
1.000000000000e+01
1.000000000000e+01
1.000000000000e+01
1.000000000000e+01
1.000000000000e+01
1.000000000000e+01
1.000000000000e+01
1.000000000000e+01
1.000000000000e+01
1.000000000000e+01
1.000000000000e+01
1.000000000000e+01
1.000000000000e+01
1.000000000000e+01
1.000000000000e+01
1.000000000000e+01
1.000000000000e+01
1.000000000000e+01
1.000000000000e+01
1.000000000000e+01
1.000000000000e+01
1.000000000000e+01
1.000000000000e+01
1.000000000000e+01
1.000000000000e+01
1.000000000000e+01
1.000000000000e+01
1.812711737000e+01
1.812715705407e+01
1.813096193586e+01
1.813002382567e+01
1.632852189345e+01
1.633129831387e+01
1.626824955662e+01
1.643505539599e+01
1.800017622319e+01
1.756289939541e+01
1.680293581413e+01
1.677706294904e+01
1.758331232318e+01
1.800168958475e+01
1.803687372141e+01
1.788339988585e+01
1.799218956344e+01
1.799992461054e+01
1.756520143700e+01
1.680273755407e+01
1.803495956446e+01
1.788247546133e+01
1.799600906803e+01
1.800591202080e+01
1.754363401693e+01
1.682843506629e+01
1.803660578665e+01
1.788322183114e+01
1.799088884954e+01
1.799196067139e+01
1.788283606423e+01
1.803688115414e+01
1.758047473178e+01
1.786879571519e+01
1.758260028609e+01
1.786591752967e+01
1.758207652282e+01
1.786313667877e+01
1.758534729976e+01
1.787444704855e+01
1.379004933759e+01
2.508991687154e+01
2.509078698437e+01
2.509387801096e+01
2.509890921607e+01
2.184492923868e+01
2.176318773865e+01
2.183161905762e+01
2.162116037376e+01
2.480204065407e+01
2.398759420168e+01
2.284445379407e+01
2.283360391410e+01
2.401135746052e+01
2.480470508249e+01
2.485716578705e+01
2.451239135923e+01
2.477933823344e+01
2.480229500533e+01
2.398717060921e+01
2.284833307235e+01
2.485296697060e+01
2.451052851534e+01
2.478719949816e+01
2.481402478797e+01
2.395794438992e+01
2.285241464855e+01
2.485594517892e+01
2.451145052922e+01
2.477764134942e+01
2.477955737800e+01
2.451136428797e+01
2.485662989056e+01
2.393669113401e+01
2.452008213597e+01
2.394290869613e+01
2.450988999696e+01
2.394364729995e+01
2.450871475659e+01
2.394753107494e+01
2.453011569404e+01
3.135673693987e+01
2.775874238008e+01
2.776016148210e+01
2.776323396254e+01
2.777040818839e+01
2.361679515374e+01
2.354488917237e+01
2.360518545404e+01
2.340811354470e+01
2.739483255600e+01
2.641254051411e+01
2.499257939320e+01
2.497501859053e+01
2.644399071943e+01
2.739582744580e+01
2.745230521942e+01
2.702260587103e+01
2.736321725394e+01
2.739537545141e+01
2.641341586967e+01
2.499684454842e+01
2.744754567977e+01
2.702039253836e+01
2.737312756330e+01
2.741170506569e+01
2.637519483979e+01
2.500714628280e+01
2.745167322299e+01
2.702156884267e+01
2.736165792740e+01
2.736380563351e+01
2.702158297020e+01
2.745189077781e+01
2.635284572025e+01
2.704628853453e+01
2.635978950989e+01
2.703244654752e+01
2.635906458305e+01
2.703253428411e+01
2.636472683068e+01
2.705810253053e+01
3.188884148498e+01
2.857036720128e+01
2.857189922871e+01
2.857587525037e+01
2.858204745992e+01
2.401379331168e+01
2.394384729004e+01
2.400505668449e+01
2.380868182408e+01
2.818771908912e+01
2.714171270102e+01
2.559672184520e+01
2.557643086118e+01
2.717651565805e+01
2.818884442111e+01
2.824986445589e+01
2.779775982038e+01
2.815445112412e+01
2.818832783132e+01
2.714266843862e+01
2.560198031177e+01
2.824501962052e+01
2.779538353375e+01
2.816484598142e+01
2.820564783366e+01
2.710079265011e+01
2.561414646461e+01
2.824934083576e+01
2.779663747858e+01
2.815266608044e+01
2.815502230548e+01
2.779662515806e+01
2.824941449921e+01
2.708658984980e+01
2.781994693954e+01
2.709379143848e+01
2.780579515007e+01
2.709299212641e+01
2.780546695868e+01
2.709920729633e+01
2.783263336808e+01
3.140132081273e+01
2.866379514152e+01
2.866531049671e+01
2.866934699729e+01
2.867538744235e+01
2.407695144926e+01
2.401071118372e+01
2.406711841741e+01
2.388464042626e+01
2.828292712990e+01
2.723917928242e+01
2.568450902626e+01
2.566321129561e+01
2.727449030712e+01
2.828393700952e+01
2.834506243905e+01
2.789534344947e+01
2.824995952867e+01
2.828353369457e+01
2.724028411551e+01
2.568987098252e+01
2.834027059701e+01
2.789298313236e+01
2.826031713030e+01
2.830094268222e+01
2.719796427627e+01
2.570322300041e+01
2.834460698810e+01
2.789426389371e+01
2.824815410625e+01
2.825050792172e+01
2.789422641119e+01
2.834464388725e+01
2.718727713271e+01
2.791681660530e+01
2.719435873217e+01
2.790281724806e+01
2.719343585529e+01
2.790240084375e+01
2.719976244881e+01
2.792948782565e+01
3.087824263366e+01
2.864981074406e+01
2.865129656693e+01
2.865540819835e+01
2.866124625991e+01
2.404772381550e+01
2.398434578421e+01
2.403732307410e+01
2.386570572562e+01
2.827235310576e+01
2.723449656111e+01
2.567685824469e+01
2.565490213257e+01
2.727009062729e+01
2.827330562311e+01
2.833446872262e+01
2.788890078316e+01
2.823989939848e+01
2.827296275355e+01
2.723565281908e+01
2.568244035877e+01
2.832974886977e+01
2.788656371924e+01
2.825016042324e+01
2.829034596921e+01
2.719312082207e+01
2.569656927970e+01
2.833406755571e+01
2.788786688995e+01
2.823805307078e+01
2.824040805019e+01
2.788780045929e+01
2.833407781746e+01
2.718574836811e+01
2.790928213170e+01
2.719269261226e+01
2.789553015600e+01
2.719169192065e+01
2.789500413663e+01
2.719808825657e+01
2.792191957297e+01
3.026204180790e+01
2.864905411546e+01
2.865053800989e+01
2.865467893300e+01
2.866036785503e+01
2.405452156594e+01
2.399210263344e+01
2.404630904122e+01
2.387126594562e+01
2.827393761698e+01
2.724105990486e+01
2.568956052592e+01
2.566783927165e+01
2.727651658809e+01
2.827491899595e+01
2.833587556307e+01
2.789298479781e+01
2.824164212169e+01
2.827452313228e+01
2.724224716959e+01
2.569502155339e+01
2.833117585801e+01
2.789064925143e+01
2.825185654291e+01
2.829178776195e+01
2.719991703577e+01
2.570880974052e+01
2.833545349589e+01
2.789193206082e+01
2.823982064760e+01
2.824215954470e+01
2.789187411224e+01
2.833546634801e+01
2.719309877494e+01
2.791297211139e+01
2.720004346995e+01
2.789931690556e+01
2.719911391652e+01
2.789873229280e+01
2.720544151338e+01
2.792552440116e+01
3.037367313903e+01
2.866450343699e+01
2.866586669950e+01
2.867026799276e+01
2.867521288352e+01
2.403165763536e+01
2.398040914138e+01
2.401916577764e+01
2.389165296304e+01
2.830317255648e+01
2.729449273310e+01
2.573308129507e+01
2.570855045429e+01
2.733103736178e+01
2.830391453912e+01
2.836498494776e+01
2.793888228696e+01
2.827296102453e+01
2.830376379393e+01
2.729592843536e+01
2.573931877620e+01
2.836056621069e+01
2.793664699237e+01
2.828279883834e+01
2.832091292433e+01
2.725280396638e+01
2.575655803401e+01
2.836478290609e+01
2.793802029703e+01
2.827098981967e+01
2.827332538421e+01
2.793784386523e+01
2.836469148417e+01
2.725902169581e+01
2.795454076007e+01
2.726541457017e+01
2.794185871282e+01
2.726414989509e+01
2.794083901041e+01
2.727075214319e+01
2.796693349645e+01
2.802162334890e+01
2.868020323042e+01
2.868148554327e+01
2.868603849494e+01
2.869042723965e+01
2.404614254057e+01
2.400324081412e+01
2.403292241375e+01
2.393361672117e+01
2.833039669724e+01
2.734436330655e+01
2.578792613792e+01
2.576187889901e+01
2.738134929809e+01
2.833099120759e+01
2.839170463625e+01
2.797948555718e+01
2.830169688963e+01
2.833097371555e+01
2.734597571663e+01
2.579449889747e+01
2.838749112907e+01
2.797732607088e+01
2.831122922039e+01
2.834791082271e+01
2.730266137752e+01
2.581357922506e+01
2.839162837377e+01
2.797873612896e+01
2.829965421407e+01
2.830196784621e+01
2.797849101195e+01
2.839147421126e+01
2.731719347005e+01
2.799222324134e+01
2.732321282997e+01
2.798025101071e+01
2.732178673075e+01
2.797894658391e+01
2.732849127826e+01
2.800441235903e+01
2.669591070925e+01
2.869710409882e+01
2.869832087484e+01
2.870296349144e+01
2.870694419704e+01
2.407841450475e+01
2.404168275189e+01
2.406450891518e+01
2.398654124763e+01
2.835692851525e+01
2.739087421691e+01
2.584332520036e+01
2.581624873795e+01
2.742805694253e+01
2.835741014776e+01
2.841766542677e+01
2.801702652192e+01
2.832945430202e+01
2.835749518483e+01
2.739260481884e+01
2.585014529693e+01
2.841361703648e+01
2.801493143670e+01
2.833872877480e+01
2.837422375374e+01
2.734929548411e+01
2.587053230590e+01
2.841768361404e+01
2.801636618893e+01
2.832736281901e+01
2.832965337926e+01
2.801606961711e+01
2.841748441853e+01
2.736988172988e+01
2.802756955277e+01
2.737560224133e+01
2.801616068343e+01
2.737405623616e+01
2.801465336156e+01
2.738081748386e+01
2.803957070708e+01
2.569542634668e+01
2.871357622577e+01
2.871474108416e+01
2.871942687719e+01
2.872312079139e+01
2.412058290957e+01
2.408841550780e+01
2.410616787575e+01
2.404398675826e+01
2.838128767885e+01
2.743240931772e+01
2.589605837926e+01
2.586831789681e+01
2.746961748291e+01
2.838168570893e+01
2.844144553755e+01
2.805026312096e+01
2.835478700654e+01
2.838184554645e+01
2.743421790608e+01
2.590303097915e+01
2.843752564212e+01
2.804822222473e+01
2.836384913224e+01
2.839837633578e+01
2.739104357223e+01
2.592430298539e+01
2.844153090615e+01
2.804967154160e+01
2.835266384526e+01
2.835493177274e+01
2.804933725554e+01
2.844130185684e+01
2.741584409285e+01
2.805920017111e+01
2.742133205338e+01
2.804822726945e+01
2.741970262799e+01
2.804658276909e+01
2.742648577988e+01
2.807103356708e+01
2.500117861068e+01
2.872885138818e+01
2.872997708640e+01
2.873467348317e+01
2.873817978338e+01
2.416625340425e+01
2.413718787365e+01
2.415146033412e+01
2.410011805873e+01
2.840270643914e+01
2.746782556271e+01
2.594324821642e+01
2.591514006981e+01
2.750494420791e+01
2.840304804571e+01
2.846233093594e+01
2.807849117927e+01
2.837694128826e+01
2.840325727437e+01
2.746967809698e+01
2.595030592778e+01
2.845850575398e+01
2.807649326155e+01
2.838583702811e+01
2.841961198044e+01
2.742671407555e+01
2.597211434772e+01
2.846246017685e+01
2.807794953089e+01
2.837480010896e+01
2.837704753386e+01
2.807758953446e+01
2.846221361136e+01
2.745421208532e+01
2.808632131313e+01
2.745952917348e+01
2.807566870603e+01
2.745784735632e+01
2.807393870592e+01
2.746462764122e+01
2.809801319177e+01
2.454882465184e+01
2.874231639272e+01
2.874341460335e+01
2.874809738981e+01
2.875150226309e+01
2.421136132880e+01
2.418409628356e+01
2.419625853046e+01
2.415149314446e+01
2.842060474324e+01
2.749636667469e+01
2.598303648478e+01
2.595479594670e+01
2.753332115691e+01
2.842091424050e+01
2.847977652119e+01
2.810121204408e+01
2.839535364844e+01
2.842115045824e+01
2.749823476664e+01
2.599012735457e+01
2.847601457396e+01
2.809924602694e+01
2.840412832432e+01
2.843735791116e+01
2.745551790102e+01
2.601219013200e+01
2.847992968176e+01
2.810070368299e+01
2.839320486997e+01
2.839543511772e+01
2.810032811540e+01
2.847967601685e+01
2.748443118529e+01
2.810836590059e+01
2.748963397218e+01
2.809792758281e+01
2.748792534483e+01
2.809615469468e+01
2.749468587465e+01
2.811994652048e+01
2.429876597671e+01
2.875372017273e+01
2.875480157369e+01
2.875945089351e+01
2.876283475994e+01
2.425371060059e+01
2.422703218362e+01
2.423827727655e+01
2.419636013928e+01
2.843474925136e+01
2.751768371068e+01
2.601437051738e+01
2.598619040478e+01
2.755442497818e+01
2.843504881018e+01
2.849357302514e+01
2.811824285024e+01
2.840980404744e+01
2.843529213536e+01
2.751954193056e+01
2.602145485320e+01
2.848984424853e+01
2.811629799221e+01
2.841850245379e+01
2.845138622984e+01
2.747708412470e+01
2.604353926485e+01
2.849373259120e+01
2.811775316258e+01
2.840765549247e+01
2.840987278348e+01
2.811737065219e+01
2.849348114035e+01
2.750627818670e+01
2.812510594476e+01
2.751141929399e+01
2.811478223922e+01
2.750970482910e+01
2.811300360993e+01
2.751643448724e+01
2.813660866137e+01
2.422096472311e+01
2.876315545386e+01
2.876423329736e+01
2.876882966480e+01
2.877226469588e+01
2.429417759897e+01
2.426669440306e+01
2.427879924020e+01
2.423430876653e+01
2.844524251152e+01
2.753200702618e+01
2.603831321945e+01
2.601048977982e+01
2.756844661718e+01
2.844556298128e+01
2.850379915228e+01
2.812965655078e+01
2.842036970184e+01
2.844578242414e+01
2.753382557901e+01
2.604533477979e+01
2.850007131645e+01
2.812771952552e+01
2.842903797068e+01
2.846178583169e+01
2.749167917191e+01
2.606707674077e+01
2.850394098672e+01
2.812916406949e+01
2.841823582000e+01
2.842044249886e+01
2.812878725226e+01
2.850370273963e+01
2.751984698070e+01
2.813665642272e+01
2.752499035840e+01
2.812634091256e+01
2.752330705899e+01
2.812459408968e+01
2.752998067790e+01
2.814810694247e+01
2.435095863440e+01
2.876487830854e+01
2.876595364963e+01
2.877053531758e+01
2.877400406637e+01
2.430071713466e+01
2.427306439956e+01
2.428513788074e+01
2.424068951377e+01
2.844691697138e+01
2.753366225617e+01
2.604093816545e+01
2.601313835567e+01
2.757006573494e+01
2.844724329518e+01
2.850549876488e+01
2.813127739834e+01
2.842206173050e+01
2.844745648818e+01
2.753547348948e+01
2.604794190536e+01
2.850176507764e+01
2.812934244848e+01
2.843073080618e+01
2.846345253355e+01
2.749335965572e+01
2.606966631129e+01
2.850563564024e+01
2.813078745086e+01
2.841992467218e+01
2.842213173175e+01
2.813040891283e+01
2.850540318398e+01
2.752128522092e+01
2.813827751030e+01
2.752643174479e+01
2.812795646307e+01
2.752475167871e+01
2.812621571392e+01
2.753142068381e+01
2.814973088886e+01
2.437291503383e+01
2.876197956845e+01
2.876306301652e+01
2.876765793714e+01
2.877106763436e+01
2.430203917536e+01
2.427407826871e+01
2.428635640618e+01
2.424127772057e+01
2.844432557221e+01
2.753229795359e+01
2.604092936650e+01
2.601320603178e+01
2.756866010504e+01
2.844464522132e+01
2.850272648005e+01
2.812889784781e+01
2.841942657620e+01
2.844486920227e+01
2.753410331940e+01
2.604797514053e+01
2.849900847274e+01
2.812696129249e+01
2.842808674935e+01
2.846085404448e+01
2.749203363032e+01
2.606965775250e+01
2.850287410160e+01
2.812840207570e+01
2.841730493706e+01
2.841950866775e+01
2.812803068983e+01
2.850262843196e+01
2.751998933531e+01
2.813603740965e+01
2.752512912805e+01
2.812571840018e+01
2.752344234876e+01
2.812398408245e+01
2.753010522034e+01
2.814746614950e+01
2.442213255726e+01
2.876514472509e+01
2.876623468009e+01
2.877070306725e+01
2.877445488295e+01
2.432530158724e+01
2.429699524405e+01
2.431019017975e+01
2.426240951498e+01
2.844463934648e+01
2.752927653435e+01
2.604483694554e+01
2.601736808281e+01
2.756540592639e+01
2.844494439250e+01
2.850283356211e+01
2.812562977861e+01
2.841935928531e+01
2.844519859998e+01
2.753102308032e+01
2.605161032646e+01
2.849905786591e+01
2.812369393170e+01
2.842806975944e+01
2.846121909673e+01
2.748912480083e+01
2.607286374202e+01
2.850295227115e+01
2.812512670939e+01
2.841722531639e+01
2.841943196464e+01
2.812476094406e+01
2.850273997771e+01
2.751374821887e+01
2.813396467963e+01
2.751894233256e+01
2.812343563698e+01
2.751726255889e+01
2.812189899443e+01
2.752391125336e+01
2.814546579970e+01
2.446481515632e+01
2.889847142304e+01
2.889928160249e+01
2.890398029374e+01
2.890740620176e+01
2.434547606966e+01
2.431557564176e+01
2.432601239186e+01
2.428536458466e+01
2.858987262133e+01
2.767220681519e+01
2.613668277454e+01
2.610802128615e+01
2.770950287691e+01
2.859066729082e+01
2.865353187074e+01
2.828943741074e+01
2.856826641434e+01
2.859019259598e+01
2.767422428346e+01
2.614438245490e+01
2.864964522955e+01
2.828750934051e+01
2.857686227371e+01
2.860601699630e+01
2.763144310363e+01
2.616753285603e+01
2.865340738739e+01
2.828908348815e+01
2.856596103865e+01
2.856817664027e+01
2.828855956348e+01
2.865342825368e+01
2.767187319229e+01
2.828712601214e+01
2.767704750818e+01
2.827779258986e+01
2.767569385979e+01
2.827484146909e+01
2.768230793277e+01
2.829857344323e+01
2.467279577796e+01
2.932317606555e+01
2.932366878850e+01
2.932693362830e+01
2.932826399907e+01
2.583823544891e+01
2.582571773623e+01
2.586555910321e+01
2.575210119729e+01
2.913430496927e+01
2.855604981029e+01
2.749563341334e+01
2.748069301565e+01
2.858176633713e+01
2.913435836912e+01
2.917521975907e+01
2.895468760095e+01
2.912218712205e+01
2.913443150076e+01
2.855752950470e+01
2.750374081802e+01
2.917295877725e+01
2.895333100141e+01
2.912754887976e+01
2.914541537251e+01
2.852829991202e+01
2.751376559121e+01
2.917519253300e+01
2.895443732145e+01
2.912083784578e+01
2.912218665730e+01
2.895412679770e+01
2.917506973024e+01
2.857580583781e+01
2.894904214449e+01
2.857902642788e+01
2.894393857440e+01
2.857835571736e+01
2.894103148775e+01
2.858268572389e+01
2.895597508174e+01
2.472845286068e+01
2.945554836670e+01
2.945597467082e+01
2.945819267455e+01
2.945964712764e+01
2.787095095016e+01
2.786397473789e+01
2.782129647015e+01
2.793382352104e+01
2.931455026874e+01
2.890969123228e+01
2.827516520494e+01
2.825595030939e+01
2.892617768486e+01
2.931478391028e+01
2.934068200347e+01
2.917355001579e+01
2.930323882922e+01
2.931487069647e+01
2.891076005227e+01
2.827628287502e+01
2.933906597494e+01
2.917284063349e+01
2.930701692469e+01
2.932147290540e+01
2.889199256288e+01
2.829492030327e+01
2.934096772473e+01
2.917350887687e+01
2.930208377712e+01
2.930313779175e+01
2.917323118298e+01
2.934083253901e+01
2.889975365046e+01
2.917692194166e+01
2.890162724651e+01
2.917227963363e+01
2.890024064545e+01
2.917198218833e+01
2.890355776898e+01
2.918233038633e+01
2.773222628931e+01
2.958454243506e+01
2.958506458288e+01
2.958621330563e+01
2.958731402031e+01
2.884598949910e+01
2.883853050268e+01
2.882940302746e+01
2.884943920211e+01
2.948921167600e+01
2.924510679205e+01
2.894731634083e+01
2.893939961219e+01
2.925243432162e+01
2.948954401302e+01
2.950122802155e+01
2.938725500577e+01
2.947874112331e+01
2.948947304691e+01
2.924533862485e+01
2.894551939415e+01
2.950013142934e+01
2.938677128252e+01
2.948117802826e+01
2.949287736219e+01
2.923650093783e+01
2.895126059439e+01
2.950123135405e+01
2.938688475592e+01
2.947826391292e+01
2.947887150931e+01
2.938693131898e+01
2.950115296952e+01
2.921794307409e+01
2.939822931851e+01
2.921957509040e+01
2.939419965926e+01
2.921920269371e+01
2.939523231252e+01
2.922065680875e+01
2.940148070007e+01
2.885237835442e+01
2.970089552324e+01
2.970131234964e+01
2.970159181634e+01
2.970282220552e+01
2.932750621435e+01
2.932551330243e+01
2.932102808509e+01
2.933167729651e+01
2.964190634897e+01
2.951306651069e+01
2.937573072876e+01
2.937200193041e+01
2.951657285266e+01
2.964155871534e+01
2.964479147680e+01
2.957566274936e+01
2.963442327612e+01
2.964223164567e+01
2.951302970877e+01
2.937476874855e+01
2.964428697262e+01
2.957542628502e+01
2.963579202849e+01
2.964446752105e+01
2.950844748410e+01
2.937712414232e+01
2.964501575523e+01
2.957546839364e+01
2.963422469606e+01
2.963454503973e+01
2.957554922481e+01
2.964481969669e+01
2.949065196664e+01
2.958823254014e+01
2.949141472290e+01
2.958535961572e+01
2.949081592345e+01
2.958682149756e+01
2.949176989273e+01
2.959003619929e+01
2.930211922717e+01
2.979703366559e+01
2.979736273359e+01
2.979757516169e+01
2.979789380488e+01
2.962689446253e+01
2.962595505542e+01
2.962419483279e+01
2.962830101062e+01
2.976500647357e+01
2.970431290558e+01
2.964569614084e+01
2.964408218198e+01
2.970590533785e+01
2.976461896631e+01
2.976415779444e+01
2.972717952739e+01
2.975993005415e+01
2.976526161964e+01
2.970424879607e+01
2.964527823639e+01
2.976402763690e+01
2.972703802460e+01
2.976062308373e+01
2.976648462278e+01
2.970205938671e+01
2.964620522437e+01
2.976442175628e+01
2.972701144915e+01
2.975994945730e+01
2.976009550645e+01
2.972713024463e+01
2.976417081108e+01
2.969053226959e+01
2.973701495692e+01
2.969086310599e+01
2.973526780238e+01
2.969038617338e+01
2.973638792121e+01
2.969091392487e+01
2.973784908978e+01
2.962377716495e+01
2.998511076415e+01
2.998513801712e+01
2.998519195942e+01
2.998500289114e+01
2.999307703475e+01
2.999314397323e+01
2.999326553412e+01
2.999296790699e+01
2.998579967212e+01
2.998841268694e+01
2.999173601504e+01
2.999181079344e+01
2.998835080184e+01
2.998578474804e+01
2.998539910555e+01
2.998622327690e+01
2.998566594312e+01
2.998581045526e+01
2.998840892499e+01
2.999175183919e+01
2.998544103878e+01
2.998622346925e+01
2.998564517083e+01
2.998577015805e+01