# vtk DataFile Version 3.0
Unstructured Grid from OpenGeoSys
ASCII
DATASET UNSTRUCTURED_GRID
FIELD TimesAndCycles 2
TIME 1 1 double
3.600000000000e+03
CYLCE 1 1 long
1
POINTS 1394 double
0.000000000000e+00 0.000000000000e+00 0.000000000000e+00
5.000000000000e+00 0.000000000000e+00 0.000000000000e+00
5.000000000000e+00 5.000000000000e+00 0.000000000000e+00
0.000000000000e+00 5.000000000000e+00 0.000000000000e+00
2.244234909000e+00 2.244234909000e+00 0.000000000000e+00
2.755765091000e+00 2.244234909000e+00 0.000000000000e+00
2.755765091000e+00 2.755765091000e+00 0.000000000000e+00
2.244234909000e+00 2.755765091000e+00 0.000000000000e+00
7.141316008320e-01 7.141316008320e-01 0.000000000000e+00
1.314642334730e+00 1.314642334730e+00 0.000000000000e+00
1.819609643610e+00 1.819609643610e+00 0.000000000000e+00
1.819609643610e+00 3.180390356390e+00 0.000000000000e+00
1.314642334740e+00 3.685357665260e+00 0.000000000000e+00
7.141316008360e-01 4.285868399160e+00 0.000000000000e+00
0.000000000000e+00 3.750000000000e+00 0.000000000000e+00
0.000000000000e+00 2.500000000000e+00 0.000000000000e+00
0.000000000000e+00 1.250000000000e+00 0.000000000000e+00
4.285868399170e+00 7.141316008320e-01 0.000000000000e+00
3.685357665270e+00 1.314642334730e+00 0.000000000000e+00
3.180390356390e+00 1.819609643610e+00 0.000000000000e+00
1.250000000000e+00 0.000000000000e+00 0.000000000000e+00
2.500000000000e+00 0.000000000000e+00 0.000000000000e+00
3.750000000000e+00 0.000000000000e+00 0.000000000000e+00
4.285868399170e+00 4.285868399170e+00 0.000000000000e+00
3.685357665270e+00 3.685357665270e+00 0.000000000000e+00
3.180390356390e+00 3.180390356390e+00 0.000000000000e+00
5.000000000000e+00 1.250000000000e+00 0.000000000000e+00
5.000000000000e+00 2.500000000000e+00 0.000000000000e+00
5.000000000000e+00 3.750000000000e+00 0.000000000000e+00
3.750000000000e+00 5.000000000000e+00 0.000000000000e+00
2.500000000000e+00 5.000000000000e+00 0.000000000000e+00
1.250000000000e+00 5.000000000000e+00 0.000000000000e+00
9.560744151940e-01 2.677827143250e+00 0.000000000000e+00
6.659597640160e-01 1.438876720610e+00 0.000000000000e+00
2.309219871940e+00 9.522638293400e-01 0.000000000000e+00
3.458157207860e+00 6.354750772000e-01 0.000000000000e+00
4.043925584810e+00 2.322172856750e+00 0.000000000000e+00
4.334040235980e+00 3.561123279390e+00 0.000000000000e+00
2.318530875810e+00 4.048536535600e+00 0.000000000000e+00
3.552396921680e+00 4.370927842320e+00 0.000000000000e+00
2.500000000000e+00 2.500000000000e+00 0.000000000000e+00
0.000000000000e+00 0.000000000000e+00 -5.000000000000e-01
5.000000000000e+00 0.000000000000e+00 -5.000000000000e-01
5.000000000000e+00 5.000000000000e+00 -5.000000000000e-01
0.000000000000e+00 5.000000000000e+00 -5.000000000000e-01
2.244234909000e+00 2.244234909000e+00 -5.000000000000e-01
2.755765091000e+00 2.244234909000e+00 -5.000000000000e-01
2.755765091000e+00 2.755765091000e+00 -5.000000000000e-01
2.244234909000e+00 2.755765091000e+00 -5.000000000000e-01
7.141316008320e-01 7.141316008320e-01 -5.000000000000e-01
1.314642334730e+00 1.314642334730e+00 -5.000000000000e-01
1.819609643610e+00 1.819609643610e+00 -5.000000000000e-01
1.819609643610e+00 3.180390356390e+00 -5.000000000000e-01
1.314642334740e+00 3.685357665260e+00 -5.000000000000e-01
7.141316008360e-01 4.285868399160e+00 -5.000000000000e-01
0.000000000000e+00 3.750000000000e+00 -5.000000000000e-01
0.000000000000e+00 2.500000000000e+00 -5.000000000000e-01
0.000000000000e+00 1.250000000000e+00 -5.000000000000e-01
4.285868399170e+00 7.141316008320e-01 -5.000000000000e-01
3.685357665270e+00 1.314642334730e+00 -5.000000000000e-01
3.180390356390e+00 1.819609643610e+00 -5.000000000000e-01
1.250000000000e+00 0.000000000000e+00 -5.000000000000e-01
2.500000000000e+00 0.000000000000e+00 -5.000000000000e-01
3.750000000000e+00 0.000000000000e+00 -5.000000000000e-01
4.285868399170e+00 4.285868399170e+00 -5.000000000000e-01
3.685357665270e+00 3.685357665270e+00 -5.000000000000e-01
3.180390356390e+00 3.180390356390e+00 -5.000000000000e-01
5.000000000000e+00 1.250000000000e+00 -5.000000000000e-01
5.000000000000e+00 2.500000000000e+00 -5.000000000000e-01
5.000000000000e+00 3.750000000000e+00 -5.000000000000e-01
3.750000000000e+00 5.000000000000e+00 -5.000000000000e-01
2.500000000000e+00 5.000000000000e+00 -5.000000000000e-01
1.250000000000e+00 5.000000000000e+00 -5.000000000000e-01
9.560744151940e-01 2.677827143250e+00 -5.000000000000e-01
6.659597640160e-01 1.438876720610e+00 -5.000000000000e-01
2.309219871940e+00 9.522638293400e-01 -5.000000000000e-01
3.458157207860e+00 6.354750772000e-01 -5.000000000000e-01
4.043925584810e+00 2.322172856750e+00 -5.000000000000e-01
4.334040235980e+00 3.561123279390e+00 -5.000000000000e-01
2.318530875810e+00 4.048536535600e+00 -5.000000000000e-01
3.552396921680e+00 4.370927842320e+00 -5.000000000000e-01
2.500000000000e+00 2.500000000000e+00 -5.000000000000e-01
0.000000000000e+00 0.000000000000e+00 -1.000000000000e+00
5.000000000000e+00 0.000000000000e+00 -1.000000000000e+00
5.000000000000e+00 5.000000000000e+00 -1.000000000000e+00
0.000000000000e+00 5.000000000000e+00 -1.000000000000e+00
2.244234909000e+00 2.244234909000e+00 -1.000000000000e+00
2.755765091000e+00 2.244234909000e+00 -1.000000000000e+00
2.755765091000e+00 2.755765091000e+00 -1.000000000000e+00
2.244234909000e+00 2.755765091000e+00 -1.000000000000e+00
7.141316008320e-01 7.141316008320e-01 -1.000000000000e+00
1.314642334730e+00 1.314642334730e+00 -1.000000000000e+00
1.819609643610e+00 1.819609643610e+00 -1.000000000000e+00
1.819609643610e+00 3.180390356390e+00 -1.000000000000e+00
1.314642334740e+00 3.685357665260e+00 -1.000000000000e+00
7.141316008360e-01 4.285868399160e+00 -1.000000000000e+00
0.000000000000e+00 3.750000000000e+00 -1.000000000000e+00
0.000000000000e+00 2.500000000000e+00 -1.000000000000e+00
0.000000000000e+00 1.250000000000e+00 -1.000000000000e+00
4.285868399170e+00 7.141316008320e-01 -1.000000000000e+00
3.685357665270e+00 1.314642334730e+00 -1.000000000000e+00
3.180390356390e+00 1.819609643610e+00 -1.000000000000e+00
1.250000000000e+00 0.000000000000e+00 -1.000000000000e+00
2.500000000000e+00 0.000000000000e+00 -1.000000000000e+00
3.750000000000e+00 0.000000000000e+00 -1.000000000000e+00
4.285868399170e+00 4.285868399170e+00 -1.000000000000e+00
3.685357665270e+00 3.685357665270e+00 -1.000000000000e+00
3.180390356390e+00 3.180390356390e+00 -1.000000000000e+00
5.000000000000e+00 1.250000000000e+00 -1.000000000000e+00
5.000000000000e+00 2.500000000000e+00 -1.000000000000e+00
5.000000000000e+00 3.750000000000e+00 -1.000000000000e+00
3.750000000000e+00 5.000000000000e+00 -1.000000000000e+00
2.500000000000e+00 5.000000000000e+00 -1.000000000000e+00
1.250000000000e+00 5.000000000000e+00 -1.000000000000e+00
9.560744151940e-01 2.677827143250e+00 -1.000000000000e+00
6.659597640160e-01 1.438876720610e+00 -1.000000000000e+00
2.309219871940e+00 9.522638293400e-01 -1.000000000000e+00
3.458157207860e+00 6.354750772000e-01 -1.000000000000e+00
4.043925584810e+00 2.322172856750e+00 -1.000000000000e+00
4.334040235980e+00 3.561123279390e+00 -1.000000000000e+00
2.318530875810e+00 4.048536535600e+00 -1.000000000000e+00
3.552396921680e+00 4.370927842320e+00 -1.000000000000e+00
2.500000000000e+00 2.500000000000e+00 -1.000000000000e+00
0.000000000000e+00 0.000000000000e+00 -3.000000000000e+00
5.000000000000e+00 0.000000000000e+00 -3.000000000000e+00
5.000000000000e+00 5.000000000000e+00 -3.000000000000e+00
0.000000000000e+00 5.000000000000e+00 -3.000000000000e+00
2.244234909000e+00 2.244234909000e+00 -3.000000000000e+00
2.755765091000e+00 2.244234909000e+00 -3.000000000000e+00
2.755765091000e+00 2.755765091000e+00 -3.000000000000e+00
2.244234909000e+00 2.755765091000e+00 -3.000000000000e+00
7.141316008320e-01 7.141316008320e-01 -3.000000000000e+00
1.314642334730e+00 1.314642334730e+00 -3.000000000000e+00
1.819609643610e+00 1.819609643610e+00 -3.000000000000e+00
1.819609643610e+00 3.180390356390e+00 -3.000000000000e+00
1.314642334740e+00 3.685357665260e+00 -3.000000000000e+00
7.141316008360e-01 4.285868399160e+00 -3.000000000000e+00
0.000000000000e+00 3.750000000000e+00 -3.000000000000e+00
0.000000000000e+00 2.500000000000e+00 -3.000000000000e+00
0.000000000000e+00 1.250000000000e+00 -3.000000000000e+00
4.285868399170e+00 7.141316008320e-01 -3.000000000000e+00
3.685357665270e+00 1.314642334730e+00 -3.000000000000e+00
3.180390356390e+00 1.819609643610e+00 -3.000000000000e+00
1.250000000000e+00 0.000000000000e+00 -3.000000000000e+00
2.500000000000e+00 0.000000000000e+00 -3.000000000000e+00
3.750000000000e+00 0.000000000000e+00 -3.000000000000e+00
4.285868399170e+00 4.285868399170e+00 -3.000000000000e+00
3.685357665270e+00 3.685357665270e+00 -3.000000000000e+00
3.180390356390e+00 3.180390356390e+00 -3.000000000000e+00
5.000000000000e+00 1.250000000000e+00 -3.000000000000e+00
5.000000000000e+00 2.500000000000e+00 -3.000000000000e+00
5.000000000000e+00 3.750000000000e+00 -3.000000000000e+00
3.750000000000e+00 5.000000000000e+00 -3.000000000000e+00
2.500000000000e+00 5.000000000000e+00 -3.000000000000e+00
1.250000000000e+00 5.000000000000e+00 -3.000000000000e+00
9.560744151940e-01 2.677827143250e+00 -3.000000000000e+00
6.659597640160e-01 1.438876720610e+00 -3.000000000000e+00
2.309219871940e+00 9.522638293400e-01 -3.000000000000e+00
3.458157207860e+00 6.354750772000e-01 -3.000000000000e+00
4.043925584810e+00 2.322172856750e+00 -3.000000000000e+00
4.334040235980e+00 3.561123279390e+00 -3.000000000000e+00
2.318530875810e+00 4.048536535600e+00 -3.000000000000e+00
3.552396921680e+00 4.370927842320e+00 -3.000000000000e+00
2.500000000000e+00 2.500000000000e+00 -3.000000000000e+00
0.000000000000e+00 0.000000000000e+00 -5.000000000000e+00
5.000000000000e+00 0.000000000000e+00 -5.000000000000e+00
5.000000000000e+00 5.000000000000e+00 -5.000000000000e+00
0.000000000000e+00 5.000000000000e+00 -5.000000000000e+00
2.244234909000e+00 2.244234909000e+00 -5.000000000000e+00
[...]
POINT_DATA 1394
SCALARS TEMPERATURE1 double 1
LOOKUP_TABLE default
1.000000000000e+01
1.000000000000e+01
1.000000000000e+01
1.000000000000e+01
1.000000000000e+01
1.000000000000e+01
1.000000000000e+01
1.000000000000e+01
1.000000000000e+01
1.000000000000e+01
1.000000000000e+01
1.000000000000e+01
1.000000000000e+01
1.000000000000e+01
1.000000000000e+01
1.000000000000e+01
1.000000000000e+01
1.000000000000e+01
1.000000000000e+01
1.000000000000e+01
1.000000000000e+01
1.000000000000e+01
1.000000000000e+01
1.000000000000e+01
1.000000000000e+01
1.000000000000e+01
1.000000000000e+01
1.000000000000e+01
1.000000000000e+01
1.000000000000e+01
1.000000000000e+01
1.000000000000e+01
1.000000000000e+01
1.000000000000e+01
1.000000000000e+01
1.000000000000e+01
1.000000000000e+01
1.000000000000e+01
1.000000000000e+01
1.000000000000e+01
1.000000000000e+01
2.088397628667e+01
2.088417580663e+01
2.088398929983e+01
2.088256202536e+01
2.022951712197e+01
2.025368256076e+01
2.031930593946e+01
2.014757486020e+01
2.091168516476e+01
2.100618308600e+01
2.103673390068e+01
2.104653890983e+01
2.100572925496e+01
2.091004667079e+01
2.090036972322e+01
2.093881187505e+01
2.091246910635e+01
2.091174785282e+01
2.100627654840e+01
2.104065514454e+01
2.090122384162e+01
2.093872442265e+01
2.091164282269e+01
2.091246857340e+01
2.100689710040e+01
2.102741071841e+01
2.090075646178e+01
2.093862038779e+01
2.091307334848e+01
2.091275749094e+01
2.093888850502e+01
2.090025459960e+01
2.102799185902e+01
2.094350123066e+01
2.102740449620e+01
2.094451419617e+01
2.102752986904e+01
2.094449148279e+01
2.102724296950e+01
2.094190246925e+01
1.660758219912e+01
2.874260089581e+01
2.874108391755e+01
2.875000474195e+01
2.873552703459e+01
2.767392448743e+01
2.761939669202e+01
2.724569874602e+01
2.826687995377e+01
2.877771545578e+01
2.855911270201e+01
2.734495355630e+01
2.727212400441e+01
2.859613234029e+01
2.877790519154e+01
2.882118058588e+01
2.886853417010e+01
2.879585436602e+01
2.877774492901e+01
2.856492612106e+01
2.736932958922e+01
2.882323686150e+01
2.886806241064e+01
2.879634680514e+01
2.878377867317e+01
2.852995661001e+01
2.747753572122e+01
2.882489343569e+01
2.887083699637e+01
2.879479322964e+01
2.879551684749e+01
2.886945678467e+01
2.882296823483e+01
2.877783492755e+01
2.878841271156e+01
2.877292905807e+01
2.879819934624e+01
2.876484218542e+01
2.878543694181e+01
2.877290184473e+01
2.879060741418e+01
4.273693267361e+01
3.030652032040e+01
3.030457660777e+01
3.031657393325e+01
3.029824867341e+01
2.904610419753e+01
2.894857748725e+01
2.856825175023e+01
2.958807738706e+01
3.032648956380e+01
2.991790542308e+01
2.841631219936e+01
2.833677274132e+01
2.995983824482e+01
3.033150824017e+01
3.040389375544e+01
3.042042306900e+01
3.034894507073e+01
3.032533863257e+01
2.992464681512e+01
2.843714266426e+01
3.040436250942e+01
3.041944604830e+01
3.035091038038e+01
3.032960694326e+01
2.988554561657e+01
2.855259509277e+01
3.040573501873e+01
3.042218359503e+01
3.034735272544e+01
3.034852029355e+01
3.042055367392e+01
3.040495279338e+01
3.015547379776e+01
3.030317053629e+01
3.015315836729e+01
3.031447227331e+01
3.014823271007e+01
3.029625312267e+01
3.015532264721e+01
3.030706678740e+01
4.259001411821e+01
3.019036140663e+01
3.018838514506e+01
3.019928854334e+01
3.018303809683e+01
2.872665760044e+01
2.864567131924e+01
2.828326261898e+01
2.925997409595e+01
3.020976780078e+01
2.982476634058e+01
2.835878786123e+01
2.828230813545e+01
2.986611033703e+01
3.021376943968e+01
3.028306628302e+01
3.030152916179e+01
3.023270026826e+01
3.020875826251e+01
2.983130567541e+01
2.838025387450e+01
3.028358680428e+01
3.030069240347e+01
3.023448665216e+01
3.021377284304e+01
2.979244652938e+01
2.849073699054e+01
3.028503018471e+01
3.030350143776e+01
3.023096648251e+01
3.023208647470e+01
3.030179899659e+01
3.028425491233e+01
3.005851829213e+01
3.018928837389e+01
3.005588675162e+01
3.020031478188e+01
3.005067980175e+01
3.018299457444e+01
3.005792684025e+01
3.019310544640e+01
4.197681391971e+01
3.017059650470e+01
3.016867276202e+01
3.017950432900e+01
3.016339193139e+01
2.864687806547e+01
2.856791244354e+01
2.821879371286e+01
2.915907531917e+01
3.018737939746e+01
2.979964586653e+01
2.834479909017e+01
2.827024869657e+01
2.984052190276e+01
3.019143057103e+01
3.026034749630e+01
3.027551465469e+01
3.020968427986e+01
3.018634109902e+01
2.980609848520e+01
2.836574684905e+01
3.026078929950e+01
3.027464574665e+01
3.021153086607e+01
3.019132269431e+01
2.976765450580e+01
2.847308066831e+01
3.026218404408e+01
3.027738153852e+01
3.020798594172e+01
3.020910006921e+01
3.027572760214e+01
3.026145517778e+01
3.002949085882e+01
3.016467746655e+01
3.002707670082e+01
3.017545670116e+01
3.002217274893e+01
3.015830081206e+01
3.002922549202e+01
3.016850048020e+01
4.136565598031e+01
3.017462200740e+01
3.017271997588e+01
3.018328522742e+01
3.016773918115e+01
2.852786130388e+01
2.845466666394e+01
2.811982479844e+01
2.902243712744e+01
3.018872195371e+01
2.979992891720e+01
2.835232813723e+01
2.827974912023e+01
2.984055431295e+01
3.019261990311e+01
3.026123186268e+01
3.027352579251e+01
3.021084695445e+01
3.018767698541e+01
2.980629584229e+01
2.837305293460e+01
3.026159783007e+01
3.027266508810e+01
3.021272711648e+01
3.019284975988e+01
2.976797505927e+01
2.847697903639e+01
3.026297882374e+01
3.027537477978e+01
3.020910790644e+01
3.021022461506e+01
3.027372176175e+01
3.026230369206e+01
3.002673987446e+01
3.016410950018e+01
3.002444419402e+01
3.017467565999e+01
3.001973845488e+01
3.015774677408e+01
3.002670147802e+01
3.016797641004e+01
4.075736800803e+01
3.017017039254e+01
3.016828326387e+01
3.017880160068e+01
3.016335217128e+01
2.853713272647e+01
2.846329581797e+01
2.812999858115e+01
2.902813577565e+01
3.018315464778e+01
2.979406370569e+01
2.835223485896e+01
2.827999720352e+01
2.983448542014e+01
3.018704830985e+01
3.025533254010e+01
3.026632674087e+01
3.020499290132e+01
3.018211901826e+01
2.980039106244e+01
2.837283789051e+01
3.025568353245e+01
3.026545895100e+01
3.020689126993e+01
3.018728208407e+01
2.976224934143e+01
2.847631543055e+01
3.025706720153e+01
3.026815321205e+01
3.020327238333e+01
3.020438330324e+01
3.026651677137e+01
3.025639685334e+01
3.001918684588e+01
3.015771678895e+01
3.001692802945e+01
3.016817280350e+01
3.001224239802e+01
3.015134941932e+01
3.001917268483e+01
3.016158620278e+01
4.067420794451e+01
3.015213709596e+01
3.015036768220e+01
3.015991128402e+01
3.014644336556e+01
2.813884228239e+01
2.808418298761e+01
2.780342164889e+01
2.856222346130e+01
3.015522570300e+01
2.976681086071e+01
2.836865064518e+01
2.830402667000e+01
2.980581836053e+01
3.015857507322e+01
3.022464721086e+01
3.022501993164e+01
3.017581317444e+01
3.015418671726e+01
2.977276588818e+01
2.838818839952e+01
3.022474662042e+01
3.022416682264e+01
3.017781890833e+01
3.015990468704e+01
2.973559152666e+01
2.847886796111e+01
3.022606235100e+01
3.022672106131e+01
3.017402122185e+01
3.017511714163e+01
3.022513764090e+01
3.022556455844e+01
2.997828326191e+01
3.012314880711e+01
2.997648169684e+01
3.013268760166e+01
2.997252899400e+01
3.011688228416e+01
2.997904959105e+01
3.012710285504e+01
3.841805787917e+01
3.013817114926e+01
3.013650498909e+01
3.014541714382e+01
3.013318824909e+01
2.790276722986e+01
2.785955719126e+01
2.761597836846e+01
2.827536100483e+01
3.013441981225e+01
2.974756736627e+01
2.838785318879e+01
2.832879011911e+01
2.978530425930e+01
3.013747077126e+01
3.020164250588e+01
3.019448368358e+01
3.015382477277e+01
3.013337332001e+01
2.975323698281e+01
2.840644529284e+01
3.020156614062e+01
3.019362334991e+01
3.015590922239e+01
3.013934582126e+01
2.971705106403e+01
2.848799086086e+01
3.020281260820e+01
3.019604740552e+01
3.015203292304e+01
3.015310649169e+01
3.019453245374e+01
3.020243333633e+01
2.994823721399e+01
3.009777065638e+01
2.994680747747e+01
3.010661266580e+01
2.994342556116e+01
3.009155387052e+01
2.994958264811e+01
3.010174147033e+01
3.680610040255e+01
3.012733613824e+01
3.012575649738e+01
3.013418134823e+01
3.012287573448e+01
2.773583964852e+01
2.770124507665e+01
2.748651328378e+01
2.806867135731e+01
3.011868557063e+01
2.973483389503e+01
2.840929030950e+01
2.835462913135e+01
2.977146855132e+01
3.012151068221e+01
3.018397604203e+01
3.017143407870e+01
3.013711083665e+01
3.011763551939e+01
2.974027128152e+01
2.842710097981e+01
3.018377357958e+01
3.017056847709e+01
3.013924305892e+01
3.012376024255e+01
2.970497975942e+01
2.850149140470e+01
3.018495810435e+01
3.017288208904e+01
3.013533399738e+01
3.013638491647e+01
3.017142851571e+01
3.018466532582e+01
2.992677411968e+01
3.007893190243e+01
2.992563062130e+01
3.008722668961e+01
2.992269625029e+01
3.007277431995e+01
2.992855015200e+01
3.008288933976e+01
3.554662884230e+01
3.011903601259e+01
3.011752738045e+01
3.012559265682e+01
3.011493983803e+01
2.762746543806e+01
2.759894042583e+01
2.740564885528e+01
2.793029137718e+01
3.010702644926e+01
2.972689014250e+01
2.843078382444e+01
2.837947749110e+01
2.976259371284e+01
3.010969052131e+01
3.017066777026e+01
3.015443692014e+01
3.012464657108e+01
3.010597621494e+01
2.973214399913e+01
2.844796371806e+01
3.017037986842e+01
3.015356671028e+01
3.012680440856e+01
3.011217239632e+01
2.969763829621e+01
2.851697303385e+01
3.017151145690e+01
3.015578891525e+01
3.012289595966e+01
3.012392500406e+01
3.015438962087e+01
3.017127805105e+01
2.991194542412e+01
3.006529134614e+01
2.991101530248e+01
3.007316695911e+01
2.990841821247e+01
3.005919393103e+01
2.991402650135e+01
3.006921595680e+01
3.460998716200e+01
3.011309967141e+01
3.011164542738e+01
3.011945677536e+01
3.010924012825e+01
2.756601129989e+01
2.754148780240e+01
2.736297929968e+01
2.784791159962e+01
3.009903711276e+01
2.972299552597e+01
2.845104731440e+01
2.840213377081e+01
2.975795525871e+01
3.010158779267e+01
3.016132231569e+01
3.014285903879e+01
3.011604329489e+01
3.009799062685e+01
2.972811135831e+01
2.846775651548e+01
3.016098403953e+01
3.014198688632e+01
3.011820789290e+01
3.010420480896e+01
2.969425462858e+01
2.853298986092e+01
3.016207423290e+01
3.014413902951e+01
3.011432217901e+01
3.011533170744e+01
3.014278359249e+01
3.016187689194e+01
2.990293387810e+01
3.005626075808e+01
2.990214664114e+01
3.006383559380e+01
2.989978079763e+01
3.005022548311e+01
2.990520493574e+01
3.006014230449e+01
3.396432653541e+01
3.010932091849e+01
3.010790427377e+01
3.011555320763e+01
3.010559093711e+01
2.754383220369e+01
2.752154012900e+01
2.735170589721e+01
2.781331847304e+01
3.009432541500e+01
2.972249255015e+01
2.846913489905e+01
2.842171660613e+01
2.975690288319e+01
3.009679990357e+01
3.015554939878e+01
3.013611448567e+01
3.011091024519e+01
3.009328690842e+01
2.972751334456e+01
2.848553519464e+01
3.015519164830e+01
3.013524383816e+01
3.011306575329e+01
3.009948297518e+01
2.969415342032e+01
2.854847373765e+01
3.015625348489e+01
3.013734814871e+01
3.010921749121e+01
3.011021075067e+01
3.013602463827e+01
3.015607149791e+01
2.989899650395e+01
3.005130036468e+01
2.989828494695e+01
3.005868374216e+01
2.989604862482e+01
3.004532873181e+01
2.990135138230e+01
3.005513474872e+01
3.358754973347e+01
3.010758683727e+01
3.010619076316e+01
3.011375932206e+01
3.010389254401e+01
2.755599747980e+01
2.753438165547e+01
2.736744251230e+01
2.782128850248e+01
3.009267266559e+01
2.972502908513e+01
2.848452856085e+01
2.843774614149e+01
2.975908995187e+01
3.009510064554e+01
3.015313014816e+01
3.013387585455e+01
3.010903290825e+01
3.009164669227e+01
2.972999630691e+01
2.850078368313e+01
3.015278147583e+01
3.013301102125e+01
3.011116488133e+01
3.009779993457e+01
2.969697030395e+01
2.856283257737e+01
3.015382904579e+01
3.013509049499e+01
3.010736411685e+01
3.010834502366e+01
3.013378571463e+01
3.015364323408e+01
2.989973435814e+01
3.005010996790e+01
2.989903242677e+01
3.005740619579e+01
2.989682587695e+01
3.004420421410e+01
2.990207144265e+01
3.005389700353e+01
3.346521738143e+01
3.010795456739e+01
3.010656171218e+01
3.011413986295e+01
3.010419039930e+01
2.761024957701e+01
2.758734740723e+01
2.741690998167e+01
2.788013174027e+01
3.009422336377e+01
2.973090556463e+01
2.849764703613e+01
2.845057256735e+01
2.976481086978e+01
3.009664011949e+01
3.015419613217e+01
3.013637273820e+01
3.011054955571e+01
3.009321616816e+01
2.973586066378e+01
2.851393527537e+01
3.015388891255e+01
3.013551730110e+01
3.011264208255e+01
3.009929245408e+01
2.970301559703e+01
2.857664280931e+01
3.015493727148e+01
3.013759576432e+01
3.010890430609e+01
3.010987580308e+01
3.013629762569e+01
3.015472555221e+01
2.990549916407e+01
3.005290942628e+01
2.990473567674e+01
3.006022708522e+01
2.990244811195e+01
3.004707206590e+01
2.990770346898e+01
3.005664494710e+01
3.361447960842e+01
3.010815361249e+01
3.010675938541e+01
3.011434311834e+01
3.010437645739e+01
2.761901518558e+01
2.759596274791e+01
2.742463659867e+01
2.789028010984e+01
3.009465333167e+01
2.973185294003e+01
2.849914217626e+01
2.845196051817e+01
2.976575598435e+01
3.009707092696e+01
3.015460541615e+01
3.013704624739e+01
3.011100283121e+01
3.009364840386e+01
2.973680976604e+01
2.851543808080e+01
3.015430453384e+01
3.013619383539e+01
3.011308882670e+01
3.009971293066e+01
2.970397240002e+01
2.857832808240e+01
3.015535429877e+01
3.013827415888e+01
3.010935717168e+01
3.011032886636e+01
3.013697434196e+01
3.015513893873e+01
2.990653804087e+01
3.005354509481e+01
2.990576133035e+01
3.006087436833e+01
2.990345733588e+01
3.004771812209e+01
2.990871919789e+01
3.005727658740e+01
3.366228905426e+01
3.010869412192e+01
3.010729830716e+01
3.011490969878e+01
3.010487128078e+01
2.763179415014e+01
2.760821683503e+01
2.743504481880e+01
2.790566832441e+01
3.009569469932e+01
2.973393168180e+01
2.850034440744e+01
2.845291299161e+01
2.976788192901e+01
3.009810329080e+01
3.015554896489e+01
3.013863643003e+01
3.011205937052e+01
3.009469619098e+01
2.973890176343e+01
2.851672533939e+01
3.015526940345e+01
3.013778347688e+01
3.011413317345e+01
3.010075573838e+01
2.970603223567e+01
2.858006502095e+01
3.015632221243e+01
3.013986962285e+01
3.011042348868e+01
3.011139176280e+01
3.013857107393e+01
3.015609134722e+01
2.990921266546e+01
3.005507518006e+01
2.990840351294e+01
3.006243585732e+01
2.990605279977e+01
3.004926322208e+01
2.991133746597e+01
3.005878996718e+01
3.372912567780e+01
3.011021350611e+01
3.010880788193e+01
3.011632524117e+01
3.010646846453e+01
2.766310780681e+01
2.763948749278e+01
2.746631808867e+01
2.793695875364e+01
3.009746874773e+01
2.973755312211e+01
2.851307400310e+01
2.846582962120e+01
2.977124182133e+01
3.009989084473e+01
3.015727867757e+01
3.014054722010e+01
3.011395178233e+01
3.009647038117e+01
2.974248073591e+01
2.852929546075e+01
3.015697846006e+01
3.013971516621e+01
3.011601086966e+01
3.010246312096e+01
2.970985916203e+01
2.859240034133e+01
3.015803026388e+01
3.014179739268e+01
3.011229433050e+01
3.011326369582e+01
3.014048733727e+01
3.015782588704e+01
2.991147194442e+01
3.005709727083e+01
2.991066621908e+01
3.006443654726e+01
2.990833611449e+01
3.005132577927e+01
2.991358554147e+01
3.006081217347e+01
3.379883632291e+01
3.009992678049e+01
3.009854775313e+01
3.010674461461e+01
3.009567948934e+01
2.758397242628e+01
2.755666266959e+01
2.737187982652e+01
2.787321589765e+01
3.008546980605e+01
2.970830025052e+01
2.842592449599e+01
2.837595108470e+01
2.974364468249e+01
3.008803982665e+01
3.014699749856e+01
3.012814923949e+01
3.010159223645e+01
3.008446113019e+01
2.971348755536e+01
2.844286920863e+01
3.014678166038e+01
3.012722313221e+01
3.010376769333e+01
3.009066932355e+01
2.967932326213e+01
2.850984353696e+01
3.014787825457e+01
3.012935444373e+01
3.009999217099e+01
3.010099886574e+01
3.012806645196e+01
3.014754395744e+01
2.988996960046e+01
3.004245078012e+01
2.988912667952e+01
3.004998863357e+01
2.988660206031e+01
3.003637059813e+01
2.989211405923e+01
3.004628273249e+01
3.394543227364e+01
3.005984475507e+01
3.005890952577e+01
3.006364581199e+01
3.005753097635e+01
2.820619047232e+01
2.819782356358e+01
2.807239905653e+01
2.841808800937e+01
3.005112444531e+01
2.982579639343e+01
2.896648468859e+01
2.893307337209e+01
2.985009724525e+01
3.005149628765e+01
3.008679708217e+01
3.007935880624e+01
3.006209386685e+01
3.005072118899e+01
2.982924956627e+01
2.898020039305e+01
3.008698360666e+01
3.007883928962e+01
3.006332115553e+01
3.005602408683e+01
2.980543648667e+01
2.902549795257e+01
3.008789992198e+01
3.008045484843e+01
3.006101702542e+01
3.006161495227e+01
3.007954358126e+01
3.008742095529e+01
2.995208392595e+01
3.002746141622e+01
2.995079157608e+01
3.003244059860e+01
2.994808331998e+01
3.002407551095e+01
2.995238839962e+01
3.002983424085e+01
3.341861384761e+01
3.004651732731e+01
3.004616542012e+01
3.004949110450e+01
3.004436625433e+01
2.914699327810e+01
2.913597641170e+01
2.911503464956e+01
2.916680523670e+01
3.004534412461e+01
2.991173731836e+01
2.951519379553e+01
2.950429075656e+01
2.992177153021e+01
3.004742261154e+01
3.006897700837e+01
3.006349556185e+01
3.005019553825e+01
3.004464666026e+01
2.991336254308e+01
2.951833402380e+01
3.006859952454e+01
3.006301640775e+01
3.005103261247e+01
3.004547357872e+01
2.990404507749e+01
2.953149303151e+01
3.006853840143e+01
3.006337860483e+01
3.004986010914e+01
3.005017654031e+01
3.006312976578e+01
3.006870616223e+01
2.996685271713e+01
3.003130614642e+01
2.996758893112e+01
3.003387244246e+01
2.996846616504e+01
3.002865618849e+01
2.996918118917e+01
3.003236327293e+01
2.790615187300e+01
3.003489497666e+01
3.003466886730e+01
3.003561983788e+01
3.003440946170e+01
2.979779154466e+01
2.979489436998e+01
2.979133296209e+01
2.979881536933e+01
3.003614011724e+01
2.998371984369e+01
2.986813678707e+01
2.986510960027e+01
2.998636494300e+01
3.003739478807e+01
3.004768214223e+01
3.004569655685e+01
3.003927312907e+01
3.003575433236e+01
2.998416351743e+01
2.986785650788e+01
3.004728454283e+01
3.004561445621e+01
3.003958125684e+01
3.003548506256e+01
2.998179317127e+01
2.987076289608e+01
3.004719143249e+01
3.004570309528e+01
3.003893298748e+01
3.003910619964e+01
3.004550925450e+01
3.004752389406e+01
2.999830296916e+01
3.003068904165e+01
2.999883130762e+01
3.003173339902e+01
2.999968197539e+01
3.002966977981e+01
2.999960622970e+01
3.003122421272e+01
3.000357049067e+01
3.002404313991e+01
3.002388906901e+01
3.002380962650e+01
3.002420760479e+01
2.999064141328e+01
2.999020919514e+01
2.998841701859e+01
2.999311614600e+01
3.002623557798e+01
3.001544309995e+01
2.999402287470e+01
2.999337637955e+01
3.001583156647e+01
3.002657470667e+01
3.003017008468e+01
3.003171649845e+01
3.002818868940e+01
3.002611010897e+01
3.001550644385e+01
2.999390612268e+01
3.002998235887e+01
3.003176307223e+01
3.002822772023e+01
3.002598519264e+01
3.001514718847e+01
2.999455469431e+01
3.002996847568e+01
3.003183295484e+01
3.002797592016e+01
3.002802649007e+01
3.003169888855e+01
3.003016951167e+01
3.001885791494e+01
3.002623269852e+01
3.001896187652e+01
3.002665380752e+01
3.001921103304e+01
3.002604175742e+01
3.001916768967e+01
3.002640433096e+01
2.994600930392e+01
3.001481018297e+01
3.001474104442e+01
3.001462449061e+01
3.001486196681e+01
3.002024992928e+01
3.002024584983e+01
3.002036693048e+01
3.002004471944e+01
3.001751628643e+01
3.002013724090e+01
3.002120287876e+01
3.002128008099e+01
3.002004905094e+01
3.001758232406e+01
3.001836365988e+01
3.002140234868e+01
3.001838125725e+01
3.001747374606e+01
3.002015204466e+01
3.002122091268e+01
3.001832095535e+01
3.002142688900e+01
3.001834161535e+01
3.001738118629e+01
3.002027310991e+01
3.002118481916e+01
3.001829683582e+01
3.002144980842e+01
3.001832587276e+01
3.001831819275e+01
3.002140576376e+01
3.001837129598e+01
3.002167246008e+01
3.001958754977e+01
3.002166725344e+01
3.001979850869e+01
3.002174397536e+01
3.001960400665e+01
3.002169675084e+01
3.001956254844e+01
3.002392316996e+01
2.999980704266e+01
2.999981090905e+01
2.999982116327e+01
2.999978558708e+01
3.000221021241e+01
3.000222741838e+01
3.000222502830e+01
3.000224367504e+01
2.999999807609e+01
3.000072163311e+01
3.000162968554e+01
3.000164528659e+01
3.000070492098e+01
2.999999437639e+01
2.999989288052e+01
3.000012992917e+01
2.999996872661e+01
2.999999994438e+01
3.000072090990e+01
3.000163448613e+01
2.999990148889e+01
3.000012919472e+01
2.999996230925e+01
2.999999095165e+01