# vtk DataFile Version 3.0
Unstructured Grid from OpenGeoSys
ASCII
DATASET UNSTRUCTURED_GRID
FIELD TimesAndCycles 2
TIME 1 1 double
3.600000000000e+03
CYLCE 1 1 long
1
POINTS 1394 double
0.000000000000e+00 0.000000000000e+00 0.000000000000e+00
5.000000000000e+00 0.000000000000e+00 0.000000000000e+00
5.000000000000e+00 5.000000000000e+00 0.000000000000e+00
0.000000000000e+00 5.000000000000e+00 0.000000000000e+00
2.244234909000e+00 2.244234909000e+00 0.000000000000e+00
2.755765091000e+00 2.244234909000e+00 0.000000000000e+00
2.755765091000e+00 2.755765091000e+00 0.000000000000e+00
2.244234909000e+00 2.755765091000e+00 0.000000000000e+00
7.141316008320e-01 7.141316008320e-01 0.000000000000e+00
1.314642334730e+00 1.314642334730e+00 0.000000000000e+00
1.819609643610e+00 1.819609643610e+00 0.000000000000e+00
1.819609643610e+00 3.180390356390e+00 0.000000000000e+00
1.314642334740e+00 3.685357665260e+00 0.000000000000e+00
7.141316008360e-01 4.285868399160e+00 0.000000000000e+00
0.000000000000e+00 3.750000000000e+00 0.000000000000e+00
0.000000000000e+00 2.500000000000e+00 0.000000000000e+00
0.000000000000e+00 1.250000000000e+00 0.000000000000e+00
4.285868399170e+00 7.141316008320e-01 0.000000000000e+00
3.685357665270e+00 1.314642334730e+00 0.000000000000e+00
3.180390356390e+00 1.819609643610e+00 0.000000000000e+00
1.250000000000e+00 0.000000000000e+00 0.000000000000e+00
2.500000000000e+00 0.000000000000e+00 0.000000000000e+00
3.750000000000e+00 0.000000000000e+00 0.000000000000e+00
4.285868399170e+00 4.285868399170e+00 0.000000000000e+00
3.685357665270e+00 3.685357665270e+00 0.000000000000e+00
3.180390356390e+00 3.180390356390e+00 0.000000000000e+00
5.000000000000e+00 1.250000000000e+00 0.000000000000e+00
5.000000000000e+00 2.500000000000e+00 0.000000000000e+00
5.000000000000e+00 3.750000000000e+00 0.000000000000e+00
3.750000000000e+00 5.000000000000e+00 0.000000000000e+00
2.500000000000e+00 5.000000000000e+00 0.000000000000e+00
1.250000000000e+00 5.000000000000e+00 0.000000000000e+00
9.560744151940e-01 2.677827143250e+00 0.000000000000e+00
6.659597640160e-01 1.438876720610e+00 0.000000000000e+00
2.309219871940e+00 9.522638293400e-01 0.000000000000e+00
3.458157207860e+00 6.354750772000e-01 0.000000000000e+00
4.043925584810e+00 2.322172856750e+00 0.000000000000e+00
4.334040235980e+00 3.561123279390e+00 0.000000000000e+00
2.318530875810e+00 4.048536535600e+00 0.000000000000e+00
3.552396921680e+00 4.370927842320e+00 0.000000000000e+00
2.500000000000e+00 2.500000000000e+00 0.000000000000e+00
0.000000000000e+00 0.000000000000e+00 -5.000000000000e-01
5.000000000000e+00 0.000000000000e+00 -5.000000000000e-01
5.000000000000e+00 5.000000000000e+00 -5.000000000000e-01
0.000000000000e+00 5.000000000000e+00 -5.000000000000e-01
2.244234909000e+00 2.244234909000e+00 -5.000000000000e-01
2.755765091000e+00 2.244234909000e+00 -5.000000000000e-01
2.755765091000e+00 2.755765091000e+00 -5.000000000000e-01
2.244234909000e+00 2.755765091000e+00 -5.000000000000e-01
7.141316008320e-01 7.141316008320e-01 -5.000000000000e-01
1.314642334730e+00 1.314642334730e+00 -5.000000000000e-01
1.819609643610e+00 1.819609643610e+00 -5.000000000000e-01
1.819609643610e+00 3.180390356390e+00 -5.000000000000e-01
1.314642334740e+00 3.685357665260e+00 -5.000000000000e-01
7.141316008360e-01 4.285868399160e+00 -5.000000000000e-01
0.000000000000e+00 3.750000000000e+00 -5.000000000000e-01
0.000000000000e+00 2.500000000000e+00 -5.000000000000e-01
0.000000000000e+00 1.250000000000e+00 -5.000000000000e-01
4.285868399170e+00 7.141316008320e-01 -5.000000000000e-01
3.685357665270e+00 1.314642334730e+00 -5.000000000000e-01
3.180390356390e+00 1.819609643610e+00 -5.000000000000e-01
1.250000000000e+00 0.000000000000e+00 -5.000000000000e-01
2.500000000000e+00 0.000000000000e+00 -5.000000000000e-01
3.750000000000e+00 0.000000000000e+00 -5.000000000000e-01
4.285868399170e+00 4.285868399170e+00 -5.000000000000e-01
3.685357665270e+00 3.685357665270e+00 -5.000000000000e-01
3.180390356390e+00 3.180390356390e+00 -5.000000000000e-01
5.000000000000e+00 1.250000000000e+00 -5.000000000000e-01
5.000000000000e+00 2.500000000000e+00 -5.000000000000e-01
5.000000000000e+00 3.750000000000e+00 -5.000000000000e-01
3.750000000000e+00 5.000000000000e+00 -5.000000000000e-01
2.500000000000e+00 5.000000000000e+00 -5.000000000000e-01
1.250000000000e+00 5.000000000000e+00 -5.000000000000e-01
9.560744151940e-01 2.677827143250e+00 -5.000000000000e-01
6.659597640160e-01 1.438876720610e+00 -5.000000000000e-01
2.309219871940e+00 9.522638293400e-01 -5.000000000000e-01
3.458157207860e+00 6.354750772000e-01 -5.000000000000e-01
4.043925584810e+00 2.322172856750e+00 -5.000000000000e-01
4.334040235980e+00 3.561123279390e+00 -5.000000000000e-01
2.318530875810e+00 4.048536535600e+00 -5.000000000000e-01
3.552396921680e+00 4.370927842320e+00 -5.000000000000e-01
2.500000000000e+00 2.500000000000e+00 -5.000000000000e-01
0.000000000000e+00 0.000000000000e+00 -1.000000000000e+00
5.000000000000e+00 0.000000000000e+00 -1.000000000000e+00
5.000000000000e+00 5.000000000000e+00 -1.000000000000e+00
0.000000000000e+00 5.000000000000e+00 -1.000000000000e+00
2.244234909000e+00 2.244234909000e+00 -1.000000000000e+00
2.755765091000e+00 2.244234909000e+00 -1.000000000000e+00
2.755765091000e+00 2.755765091000e+00 -1.000000000000e+00
2.244234909000e+00 2.755765091000e+00 -1.000000000000e+00
7.141316008320e-01 7.141316008320e-01 -1.000000000000e+00
1.314642334730e+00 1.314642334730e+00 -1.000000000000e+00
1.819609643610e+00 1.819609643610e+00 -1.000000000000e+00
1.819609643610e+00 3.180390356390e+00 -1.000000000000e+00
1.314642334740e+00 3.685357665260e+00 -1.000000000000e+00
7.141316008360e-01 4.285868399160e+00 -1.000000000000e+00
0.000000000000e+00 3.750000000000e+00 -1.000000000000e+00
0.000000000000e+00 2.500000000000e+00 -1.000000000000e+00
0.000000000000e+00 1.250000000000e+00 -1.000000000000e+00
4.285868399170e+00 7.141316008320e-01 -1.000000000000e+00
3.685357665270e+00 1.314642334730e+00 -1.000000000000e+00
3.180390356390e+00 1.819609643610e+00 -1.000000000000e+00
1.250000000000e+00 0.000000000000e+00 -1.000000000000e+00
2.500000000000e+00 0.000000000000e+00 -1.000000000000e+00
3.750000000000e+00 0.000000000000e+00 -1.000000000000e+00
4.285868399170e+00 4.285868399170e+00 -1.000000000000e+00
3.685357665270e+00 3.685357665270e+00 -1.000000000000e+00
3.180390356390e+00 3.180390356390e+00 -1.000000000000e+00
5.000000000000e+00 1.250000000000e+00 -1.000000000000e+00
5.000000000000e+00 2.500000000000e+00 -1.000000000000e+00
5.000000000000e+00 3.750000000000e+00 -1.000000000000e+00
3.750000000000e+00 5.000000000000e+00 -1.000000000000e+00
2.500000000000e+00 5.000000000000e+00 -1.000000000000e+00
1.250000000000e+00 5.000000000000e+00 -1.000000000000e+00
9.560744151940e-01 2.677827143250e+00 -1.000000000000e+00
6.659597640160e-01 1.438876720610e+00 -1.000000000000e+00
2.309219871940e+00 9.522638293400e-01 -1.000000000000e+00
3.458157207860e+00 6.354750772000e-01 -1.000000000000e+00
4.043925584810e+00 2.322172856750e+00 -1.000000000000e+00
4.334040235980e+00 3.561123279390e+00 -1.000000000000e+00
2.318530875810e+00 4.048536535600e+00 -1.000000000000e+00
3.552396921680e+00 4.370927842320e+00 -1.000000000000e+00
2.500000000000e+00 2.500000000000e+00 -1.000000000000e+00
0.000000000000e+00 0.000000000000e+00 -3.000000000000e+00
5.000000000000e+00 0.000000000000e+00 -3.000000000000e+00
5.000000000000e+00 5.000000000000e+00 -3.000000000000e+00
0.000000000000e+00 5.000000000000e+00 -3.000000000000e+00
2.244234909000e+00 2.244234909000e+00 -3.000000000000e+00
2.755765091000e+00 2.244234909000e+00 -3.000000000000e+00
2.755765091000e+00 2.755765091000e+00 -3.000000000000e+00
2.244234909000e+00 2.755765091000e+00 -3.000000000000e+00
7.141316008320e-01 7.141316008320e-01 -3.000000000000e+00
1.314642334730e+00 1.314642334730e+00 -3.000000000000e+00
1.819609643610e+00 1.819609643610e+00 -3.000000000000e+00
1.819609643610e+00 3.180390356390e+00 -3.000000000000e+00
1.314642334740e+00 3.685357665260e+00 -3.000000000000e+00
7.141316008360e-01 4.285868399160e+00 -3.000000000000e+00
0.000000000000e+00 3.750000000000e+00 -3.000000000000e+00
0.000000000000e+00 2.500000000000e+00 -3.000000000000e+00
0.000000000000e+00 1.250000000000e+00 -3.000000000000e+00
4.285868399170e+00 7.141316008320e-01 -3.000000000000e+00
3.685357665270e+00 1.314642334730e+00 -3.000000000000e+00
3.180390356390e+00 1.819609643610e+00 -3.000000000000e+00
1.250000000000e+00 0.000000000000e+00 -3.000000000000e+00
2.500000000000e+00 0.000000000000e+00 -3.000000000000e+00
3.750000000000e+00 0.000000000000e+00 -3.000000000000e+00
4.285868399170e+00 4.285868399170e+00 -3.000000000000e+00
3.685357665270e+00 3.685357665270e+00 -3.000000000000e+00
3.180390356390e+00 3.180390356390e+00 -3.000000000000e+00
5.000000000000e+00 1.250000000000e+00 -3.000000000000e+00
5.000000000000e+00 2.500000000000e+00 -3.000000000000e+00
5.000000000000e+00 3.750000000000e+00 -3.000000000000e+00
3.750000000000e+00 5.000000000000e+00 -3.000000000000e+00
2.500000000000e+00 5.000000000000e+00 -3.000000000000e+00
1.250000000000e+00 5.000000000000e+00 -3.000000000000e+00
9.560744151940e-01 2.677827143250e+00 -3.000000000000e+00
6.659597640160e-01 1.438876720610e+00 -3.000000000000e+00
2.309219871940e+00 9.522638293400e-01 -3.000000000000e+00
3.458157207860e+00 6.354750772000e-01 -3.000000000000e+00
4.043925584810e+00 2.322172856750e+00 -3.000000000000e+00
4.334040235980e+00 3.561123279390e+00 -3.000000000000e+00
2.318530875810e+00 4.048536535600e+00 -3.000000000000e+00
3.552396921680e+00 4.370927842320e+00 -3.000000000000e+00
2.500000000000e+00 2.500000000000e+00 -3.000000000000e+00
0.000000000000e+00 0.000000000000e+00 -5.000000000000e+00
5.000000000000e+00 0.000000000000e+00 -5.000000000000e+00
5.000000000000e+00 5.000000000000e+00 -5.000000000000e+00
0.000000000000e+00 5.000000000000e+00 -5.000000000000e+00
2.244234909000e+00 2.244234909000e+00 -5.000000000000e+00
[...]
POINT_DATA 1394
SCALARS TEMPERATURE1 double 1
LOOKUP_TABLE default
1.000000000000e+01
1.000000000000e+01
1.000000000000e+01
1.000000000000e+01
1.000000000000e+01
1.000000000000e+01
1.000000000000e+01
1.000000000000e+01
1.000000000000e+01
1.000000000000e+01
1.000000000000e+01
1.000000000000e+01
1.000000000000e+01
1.000000000000e+01
1.000000000000e+01
1.000000000000e+01
1.000000000000e+01
1.000000000000e+01
1.000000000000e+01
1.000000000000e+01
1.000000000000e+01
1.000000000000e+01
1.000000000000e+01
1.000000000000e+01
1.000000000000e+01
1.000000000000e+01
1.000000000000e+01
1.000000000000e+01
1.000000000000e+01
1.000000000000e+01
1.000000000000e+01
1.000000000000e+01
1.000000000000e+01
1.000000000000e+01
1.000000000000e+01
1.000000000000e+01
1.000000000000e+01
1.000000000000e+01
1.000000000000e+01
1.000000000000e+01
1.000000000000e+01
1.910173064786e+01
1.910063784193e+01
1.909356173354e+01
1.909665724917e+01
2.290555429942e+01
2.293079824127e+01
2.301540511136e+01
2.279838812854e+01
1.938002119759e+01
2.025010336785e+01
2.176996676900e+01
2.181358255677e+01
2.021096262290e+01
1.937893974768e+01
1.931985163073e+01
1.965003623267e+01
1.940326459565e+01
1.937963246434e+01
2.024659296075e+01
2.176485996754e+01
1.932249773660e+01
1.965182953078e+01
1.939513039658e+01
1.936625684424e+01
2.028997292261e+01
2.172116225239e+01
1.931887752103e+01
1.965062502671e+01
1.940521798575e+01
1.940317669915e+01
1.965115849620e+01
1.931993363651e+01
2.022844181712e+01
1.965714264774e+01
2.022403099291e+01
1.966481335740e+01
2.022641314206e+01
1.966884832017e+01
2.021969725099e+01
1.964659866133e+01
2.111808533539e+01
2.867611901277e+01
2.867400768186e+01
2.866046949366e+01
2.866646511987e+01
3.979060973649e+01
3.975359307495e+01
3.970581477132e+01
3.983457693207e+01
2.921176987369e+01
3.092709816007e+01
3.430794787999e+01
3.437208443634e+01
3.083996726143e+01
2.921308166597e+01
2.909148268284e+01
2.971478180023e+01
2.925002439362e+01
2.921130681383e+01
3.091953164915e+01
3.428481645063e+01
2.909615659371e+01
2.971863190771e+01
2.923422604547e+01
2.917896437961e+01
3.101610447370e+01
3.423609063233e+01
2.908958745765e+01
2.971577922485e+01
2.925413094518e+01
2.925018485690e+01
2.971701586757e+01
2.909204889526e+01
3.080816166019e+01
2.974155067064e+01
3.079947446042e+01
2.975399879421e+01
3.080266527859e+01
2.976517694571e+01
3.078873827414e+01
2.972146130525e+01
5.312539743716e+01
3.374742002997e+01
3.374477431542e+01
3.373194870942e+01
3.373666938097e+01
4.387295232702e+01
4.385665920689e+01
4.384857947952e+01
4.387650300893e+01
3.431554992105e+01
3.605919247774e+01
3.928162633246e+01
3.934830043403e+01
3.597655287500e+01
3.431663631949e+01
3.420049612527e+01
3.486516270014e+01
3.436111224430e+01
3.431462129955e+01
3.605241442627e+01
3.926374967092e+01
3.420525828216e+01
3.486875244274e+01
3.434468692066e+01
3.428347682135e+01
3.614532312992e+01
3.921103436329e+01
3.419822683366e+01
3.486630703220e+01
3.436523577725e+01
3.436116551840e+01
3.486748791089e+01
3.420103012245e+01
3.599064194087e+01
3.487336874917e+01
3.598140368857e+01
3.488868760983e+01
3.598517420836e+01
3.489704434858e+01
3.597156102794e+01
3.485266238303e+01
5.411521664142e+01
3.635906292330e+01
3.635637571345e+01
3.634512969856e+01
3.634973127566e+01
4.532566695982e+01
4.530917487568e+01
4.529873738280e+01
4.533162364003e+01
3.687111106815e+01
3.841452839240e+01
4.124830257056e+01
4.130668133912e+01
3.834177602335e+01
3.687271443359e+01
3.677381506169e+01
3.737182858777e+01
3.691448529573e+01
3.687002103354e+01
3.840865692408e+01
4.123254938180e+01
3.677766969721e+01
3.737492586001e+01
3.689978065078e+01
3.684226718575e+01
3.849097977536e+01
4.118717051153e+01
3.677131767198e+01
3.737293184001e+01
3.691803715969e+01
3.691444598771e+01
3.737394093957e+01
3.677431331537e+01
3.836207207390e+01
3.737091593070e+01
3.835383903249e+01
3.738525700083e+01
3.835756915723e+01
3.739182235251e+01
3.834548221708e+01
3.735266673898e+01
5.462750019235e+01
3.749038928647e+01
3.748785977534e+01
3.747711004587e+01
3.748181742196e+01
4.600567322571e+01
4.599030331484e+01
4.598167987522e+01
4.600941289677e+01
3.797217979298e+01
3.943256359493e+01
4.212764082440e+01
4.218331604590e+01
3.936338492149e+01
3.797365433691e+01
3.787925963804e+01
3.844203334747e+01
3.801264048924e+01
3.797117276953e+01
3.942692353503e+01
4.211244152010e+01
3.788284127791e+01
3.844494224652e+01
3.799873808712e+01
3.794498577654e+01
3.950514738103e+01
4.206888726707e+01
3.787685576529e+01
3.844305209887e+01
3.801602922545e+01
3.801263294769e+01
3.844405295232e+01
3.787974485028e+01
3.937900792703e+01
3.844319308490e+01
3.937121744423e+01
3.845648562366e+01
3.937472489381e+01
3.846303868261e+01
3.936329941056e+01
3.842598430865e+01
5.480791202391e+01
3.792144501467e+01
3.791898280706e+01
3.790849916147e+01
3.791305071650e+01
4.623943597704e+01
4.622436165447e+01
4.621597672626e+01
4.624292544411e+01
3.839202637841e+01
3.981873971413e+01
4.245137668848e+01
4.250576801177e+01
3.975116834548e+01
3.839346074622e+01
3.830116002248e+01
3.885085842652e+01
3.843148154133e+01
3.839104618323e+01
3.981323241090e+01
4.243653816900e+01
3.830466698005e+01
3.885369685563e+01
3.841790194039e+01
3.836546831733e+01
3.988964074694e+01
4.239399504334e+01
3.829882021303e+01
3.885184694133e+01
3.843480146820e+01
3.843148348825e+01
3.885283059520e+01
3.830163193398e+01
3.976643078507e+01
3.885212365358e+01
3.975881918117e+01
3.886509839639e+01
3.976223898710e+01
3.887150779198e+01
3.975108020651e+01
3.883530643384e+01
5.484859301961e+01
3.805838585935e+01
3.805595103321e+01
3.804555002929e+01
3.805008118123e+01
4.630058298283e+01
4.628563815047e+01
4.627738960209e+01
4.630390903528e+01
3.852428984418e+01
3.993731539129e+01
4.254598254542e+01
4.259988086107e+01
3.987035140895e+01
3.852570393955e+01
3.843424982425e+01
3.897847658983e+01
3.856333544640e+01
3.852332252880e+01
3.993185558806e+01
4.253125365687e+01
3.843772516925e+01
3.898129283799e+01
3.854989048601e+01
3.849798049744e+01
4.000755946101e+01
4.248906932749e+01
3.843193677397e+01
3.897945648980e+01
3.856662050039e+01
3.856333353215e+01
3.898042768950e+01
3.843471662352e+01
3.988518086043e+01
3.897984707340e+01
3.987764921171e+01
3.899268230025e+01
3.988103605212e+01
3.899904589179e+01
3.986997687139e+01
3.896319098512e+01
5.483399941679e+01
3.779249567571e+01
3.779008123281e+01
3.777969802516e+01
3.778415852198e+01
4.602347709370e+01
4.600835413318e+01
4.599945103619e+01
4.602770657313e+01
3.825744378474e+01
3.966754522153e+01
4.227079978077e+01
4.232449228913e+01
3.960071121584e+01
3.825883670509e+01
3.816755509384e+01
3.871064546571e+01
3.829638309163e+01
3.825649008285e+01
3.966209899877e+01
4.225611371153e+01
3.817105388929e+01
3.871347297458e+01
3.828297506223e+01
3.823117196823e+01
3.973762161449e+01
4.221414902361e+01
3.816528303304e+01
3.871163068073e+01
3.829965331920e+01
3.829637334343e+01
3.871258589453e+01
3.816801889454e+01
3.961550095748e+01
3.871204437621e+01
3.960799129558e+01
3.872486044697e+01
3.961135125560e+01
3.873119515182e+01
3.960030796920e+01
3.869540992893e+01
5.454561296067e+01
3.749637522175e+01
3.749397038212e+01
3.748357211959e+01
3.748798255306e+01
4.574384314394e+01
4.572853564356e+01
4.571905024905e+01
4.574887211897e+01
3.796200534294e+01
3.937413206957e+01
4.198105716787e+01
4.203474492023e+01
3.930719783449e+01
3.796338586914e+01
3.787195811827e+01
3.841582685570e+01
3.800097720090e+01
3.796105989561e+01
3.936867990549e+01
4.196636091565e+01
3.787548773726e+01
3.841867216222e+01
3.798755704618e+01
3.793568168491e+01
3.944428859600e+01
4.192444958801e+01
3.786971295697e+01
3.841681900197e+01
3.800424573778e+01
3.800096158546e+01
3.841776452625e+01
3.787242071438e+01
3.932201216463e+01
3.841725197511e+01
3.931449642997e+01
3.843009304437e+01
3.931784462157e+01
3.843642354171e+01
3.930678028211e+01
3.840058316442e+01
5.428560299863e+01
3.727572386028e+01
3.727333136761e+01
3.726293871532e+01
3.726730182504e+01
4.552200997396e+01
4.550657426515e+01
4.549663214212e+01
4.552767224908e+01
3.774105901886e+01
3.915229082553e+01
4.175757556483e+01
4.181116425321e+01
3.908539344519e+01
3.774242657431e+01
3.765104129979e+01
3.819455081085e+01
3.777998480920e+01
3.774012218794e+01
3.914684333298e+01
4.174289616253e+01
3.765458967159e+01
3.819740562869e+01
3.776657917528e+01
3.771474061679e+01
3.922238748726e+01
4.170110202660e+01
3.764882226066e+01
3.819554679975e+01
3.778324608595e+01
3.777996440740e+01
3.819648272115e+01
3.765150209816e+01
3.910018479080e+01
3.819600325599e+01
3.909267787176e+01
3.820884041756e+01
3.909601021332e+01
3.821515722198e+01
3.908494847334e+01
3.817933647577e+01
5.406436783504e+01
3.709937837911e+01
3.709699701436e+01
3.708661315749e+01
3.709093630005e+01
4.534151920195e+01
4.532598251227e+01
4.531566677912e+01
4.534770106333e+01
3.756427644471e+01
3.897420142506e+01
4.157712504238e+01
4.163061120652e+01
3.890736046767e+01
3.756563294545e+01
3.747431766194e+01
3.801730422362e+01
3.760314715201e+01
3.756334709410e+01
3.896875971669e+01
4.156246440087e+01
3.747787971596e+01
3.802016556098e+01
3.758975884491e+01
3.753797316658e+01
3.904422139885e+01
4.152078300975e+01
3.747212074610e+01
3.801830284131e+01
3.760640127106e+01
3.760312301352e+01
3.801923071503e+01
3.747477683939e+01
3.892211697178e+01
3.801878328748e+01
3.891462024184e+01
3.803161128115e+01
3.891793815747e+01
3.803791521711e+01
3.890688313936e+01
3.800212514858e+01
5.388120104880e+01
3.696895378106e+01
3.696658262931e+01
3.695621210353e+01
3.696050202689e+01
4.520279325552e+01
4.518718544546e+01
4.517658315666e+01
4.520937639649e+01
3.743321099657e+01
3.884122570471e+01
4.144069874865e+01
4.149407174700e+01
3.877447014219e+01
3.743455807565e+01
3.734335321170e+01
3.788558149035e+01
3.747201280331e+01
3.743228810967e+01
3.883579172752e+01
4.142606122371e+01
3.734692345675e+01
3.788844599840e+01
3.745864646786e+01
3.740693634587e+01
3.891114236936e+01
4.138449365005e+01
3.734117477751e+01
3.788658144206e+01
3.747525941201e+01
3.747198593237e+01
3.788750263130e+01
3.734381088133e+01
3.878918125109e+01
3.788708500955e+01
3.878169712986e+01
3.789989704466e+01
3.878500160919e+01
3.790618781646e+01
3.877395891618e+01
3.787044431919e+01
5.373517482449e+01
3.688224205586e+01
3.687987993556e+01
3.686952619141e+01
3.687378995316e+01
4.510450860987e+01
4.508885712144e+01
4.507805209143e+01
4.511137804914e+01
3.734570589372e+01
3.875135349699e+01
4.134655616081e+01
4.139981058884e+01
3.868470528466e+01
3.734704547202e+01
3.725598319521e+01
3.779727708235e+01
3.738442988685e+01
3.734478832755e+01
3.874592865914e+01
4.133194447245e+01
3.725955652824e+01
3.780014177835e+01
3.737108877368e+01
3.731947035550e+01
3.882114758819e+01
4.129048788094e+01
3.725381937198e+01
3.779827723994e+01
3.738766889148e+01
3.738440121860e+01
3.779919311911e+01
3.725643950202e+01
3.869936354975e+01
3.779880059210e+01
3.869189373197e+01
3.781159148109e+01
3.869518621963e+01
3.781786913394e+01
3.868416020692e+01
3.778218440837e+01
5.362580963701e+01
3.683250828269e+01
3.683015332519e+01
3.681981614042e+01
3.682406122009e+01
4.504305374420e+01
4.502738076703e+01
4.501644644273e+01
4.505010983971e+01
3.729520422104e+01
3.869857979237e+01
4.128967954361e+01
4.134282943829e+01
3.863203588763e+01
3.729653812741e+01
3.720561202341e+01
3.774600501448e+01
3.733385458415e+01
3.729429069791e+01
3.869316349735e+01
4.127509204490e+01
3.720918519544e+01
3.774886803404e+01
3.732053677518e+01
3.726900870398e+01
3.876825818106e+01
4.123372947772e+01
3.720345865563e+01
3.774700461070e+01
3.733708733454e+01
3.733382519290e+01
3.774791696031e+01
3.720606732658e+01
3.864664247745e+01
3.774754920361e+01
3.863918551183e+01
3.776031856917e+01
3.864246811638e+01
3.776658586171e+01
3.863145914773e+01
3.773095793724e+01
5.355298947336e+01
3.684562601680e+01
3.684327943785e+01
3.683297317188e+01
3.683720490769e+01
4.503193550005e+01
4.501628092449e+01
4.500532227438e+01
4.503903036063e+01
3.730685922784e+01
3.870584583955e+01
4.128907643508e+01
4.134205699879e+01
3.863950279564e+01
3.730818919598e+01
3.721754467998e+01
3.775622252062e+01
3.734538543041e+01
3.730594930697e+01
3.870044544724e+01
4.127452880486e+01
3.722110738352e+01
3.775907769528e+01
3.733210991947e+01
3.728074322880e+01
3.877531069849e+01
4.123330138310e+01
3.721539932835e+01
3.775721941444e+01
3.734860757261e+01
3.734535590573e+01
3.775812831496e+01
3.721799850984e+01
3.865401694934e+01
3.775777351966e+01
3.864658402143e+01
3.777050114358e+01
3.864985571917e+01
3.777675059878e+01
3.863888017003e+01
3.774123419014e+01
5.351641779585e+01
3.687794108439e+01
3.687560239628e+01
3.686531998651e+01
3.686952537399e+01
4.504825975543e+01
4.503266393389e+01
4.502172642439e+01
4.505538794213e+01
3.733833016778e+01
3.873502487060e+01
4.131350117775e+01
4.136638476452e+01
3.866880993900e+01
3.733964705103e+01
3.724909329562e+01
3.778681902512e+01
3.737675010542e+01
3.733742506095e+01
3.872963555836e+01
4.129899943912e+01
3.725265664408e+01
3.778966817525e+01
3.736349748833e+01
3.731227120208e+01
3.880435619109e+01
4.125785433343e+01
3.724695942021e+01
3.778781243659e+01
3.737997119946e+01
3.737672420038e+01
3.778872192409e+01
3.724954662051e+01
3.868333835137e+01
3.778846357689e+01
3.867591449747e+01
3.780116415769e+01
3.867917156810e+01
3.780740978577e+01
3.866821955532e+01
3.777194899003e+01
5.352074539307e+01
3.687468298362e+01
3.687233503027e+01
3.686198956122e+01
3.686634102563e+01
4.505162111601e+01
4.503591976185e+01
4.502512782018e+01
4.505830883463e+01
3.733448581819e+01
3.872961606147e+01
4.130949421612e+01
4.136241736552e+01
3.866332697971e+01
3.733581908725e+01
3.724548706907e+01
3.778242490951e+01
3.737296118281e+01
3.733357686699e+01
3.872421392717e+01
4.129487931277e+01
3.724902546055e+01
3.778528633388e+01
3.735972810185e+01
3.730840343484e+01
3.879898062058e+01
4.125362580180e+01
3.724333502306e+01
3.778342913899e+01
3.737615584881e+01
3.737291106520e+01
3.778432196774e+01
3.724594032412e+01
3.867712893556e+01
3.778398649110e+01
3.866973688745e+01
3.779666283311e+01
3.867301887969e+01
3.780291528059e+01
3.866204651813e+01
3.776749971246e+01
5.351162185801e+01
3.663700356026e+01
3.663465096541e+01
3.662438846787e+01
3.662810399600e+01
4.486172991720e+01
4.484601376664e+01
4.483383652977e+01
4.487099376650e+01
3.710618185315e+01
3.852101283951e+01
4.111442309745e+01
4.116746065745e+01
3.845441851590e+01
3.710749997482e+01
3.701646183485e+01
3.756448586658e+01
3.714556609475e+01
3.710525654345e+01
3.851566963521e+01
4.110015779347e+01
3.702019674119e+01
3.756740096134e+01
3.713214143274e+01
3.707971861655e+01
3.859085942091e+01
4.105918249747e+01
3.701440333222e+01
3.756551118735e+01
3.714880994122e+01
3.714551483781e+01
3.756638008202e+01
3.701689957917e+01
3.847354013452e+01
3.756421972406e+01
3.846602018224e+01
3.757738902562e+01
3.846930780207e+01
3.758332741630e+01
3.845821168958e+01
3.754739975459e+01
5.345639804196e+01
3.568878386943e+01
3.568691183125e+01
3.567549276304e+01
3.568016167929e+01
4.448156684869e+01
4.446626885227e+01
4.446092043607e+01
4.447974794360e+01
3.615463884187e+01
3.763040644029e+01
4.043161716850e+01
4.048959169966e+01
3.755844570665e+01
3.615502201036e+01
3.605157656772e+01
3.659690601486e+01
3.618918877476e+01
3.615416370649e+01
3.762426241199e+01
4.041502811079e+01
3.605577063597e+01
3.660006671791e+01
3.617551338084e+01
3.612774155540e+01
3.770432964404e+01
4.036809883084e+01
3.605001062460e+01
3.659777574255e+01
3.619276455071e+01
3.618932053518e+01
3.659884415831e+01
3.605202241467e+01
3.755076923797e+01
3.661600742617e+01
3.754312763785e+01
3.662752491679e+01
3.754597491446e+01
3.663619920691e+01
3.753433213766e+01
3.659853516716e+01
5.322686282088e+01
3.371046473583e+01
3.370928011954e+01
3.370154517116e+01
3.370539100111e+01
4.081562872501e+01
4.077782029058e+01
4.070813992566e+01
4.089173903916e+01
3.400798963037e+01
3.497702920341e+01
3.699472282873e+01
3.702707441135e+01
3.492498941419e+01
3.400954146305e+01
3.393933163157e+01
3.428242416348e+01
3.402760177786e+01
3.400779697738e+01
3.497246202581e+01
3.697809146585e+01
3.394174691953e+01
3.428467595325e+01
3.401872969406e+01
3.398811824308e+01
3.503004356657e+01
3.695712764849e+01
3.393815402230e+01
3.428292681814e+01
3.402993327014e+01
3.402773467752e+01
3.428368248317e+01
3.393973005754e+01
3.488748419615e+01
3.430178592751e+01
3.488265615984e+01
3.430798853959e+01
3.488427337749e+01
3.431534699252e+01
3.487615740560e+01
3.429068974297e+01
5.168692612533e+01
3.312929310932e+01
3.312820055331e+01
3.312293215283e+01
3.312533281211e+01
3.607937876593e+01
3.609647682738e+01
3.615830653379e+01
3.599917858455e+01
3.335282371968e+01
3.402849114990e+01
3.518642402664e+01
3.521944573768e+01
3.399864678531e+01
3.335245648471e+01
3.330928791768e+01
3.357379783525e+01
3.337291613099e+01
3.335231508558e+01
3.402595854992e+01
3.518263535204e+01
3.331111189391e+01
3.357509101624e+01
3.336648149704e+01
3.334180949742e+01
3.405952595256e+01
3.515029227572e+01
3.330819748092e+01
3.357427907400e+01
3.337442908968e+01
3.337283294613e+01
3.357469744565e+01
3.330936288930e+01
3.401991081811e+01
3.357314134389e+01
3.401643262767e+01
3.357972873676e+01
3.401854167250e+01
3.358214535156e+01
3.401332042072e+01
3.356495921609e+01
3.449641056096e+01
3.255543356401e+01
3.255434628166e+01
3.255224497615e+01
3.255195537054e+01
3.375288668053e+01
3.376676694902e+01
3.379133999136e+01
3.373295372253e+01
3.270935420349e+01
3.311037098914e+01
3.362009854113e+01
3.363501170632e+01
3.309783167545e+01
3.270907080942e+01
3.268985244750e+01
3.287399442798e+01
3.272688290200e+01
3.270879635118e+01
3.310976032862e+01
3.362267210181e+01
3.269113322619e+01
3.287459371973e+01
3.272275663256e+01
3.270362204202e+01
3.312513519963e+01
3.361075509861e+01
3.268929273168e+01
3.287456973653e+01
3.272772653007e+01
3.272675287943e+01
3.287467099505e+01
3.269003950914e+01
3.314982318108e+01
3.285693005110e+01
3.314704879651e+01
3.286319585456e+01
3.314791489132e+01
3.286205999139e+01
3.314561636846e+01
3.285186716100e+01
3.414907749795e+01
3.201732481297e+01
3.201643183430e+01
3.201609816807e+01
3.201472552963e+01
3.263763074748e+01
3.264056545211e+01
3.264530127700e+01
3.263512497292e+01
3.211443250226e+01
3.232545835440e+01
3.254740055527e+01
3.255325459188e+01
3.231999671645e+01
3.211526253330e+01
3.211039016769e+01
3.222431567838e+01
3.212721919486e+01
3.211378730653e+01
3.232549892578e+01
3.254905714851e+01
3.211087303148e+01
3.222451868076e+01
3.212484381312e+01
3.211046212816e+01
3.233315124434e+01
3.254597549711e+01
3.210966014430e+01
3.222462153040e+01
3.212762737039e+01
3.212711973182e+01
3.222463427291e+01
3.211042681515e+01
3.236323891486e+01
3.220284347778e+01
3.236177866687e+01
3.220752448373e+01
3.236278911148e+01
3.220530259849e+01
3.236144162685e+01
3.220008249806e+01
3.259155121906e+01
3.153759513879e+01
3.153688509832e+01
3.153667420996e+01
3.153654939525e+01
3.182005928353e+01
3.182160484111e+01
3.182482343650e+01
3.181730502658e+01
3.159198399156e+01
3.169342488622e+01
3.179060455028e+01
3.179343755406e+01
3.169091020207e+01
3.159290788164e+01
3.159417523916e+01
3.165685807361e+01
3.160095329615e+01
3.159144878916e+01
3.169349908588e+01
3.179127426694e+01
3.159410485142e+01
3.165694378277e+01
3.159968248035e+01
3.158961352563e+01
3.169737067789e+01
3.178979655800e+01
3.159340618602e+01
3.165711085941e+01
3.160098852168e+01
3.160076610468e+01
3.165703475607e+01
3.159419638509e+01
3.171716850922e+01
3.163938429341e+01
3.171648700338e+01
3.164230533950e+01
3.171740045550e+01
3.164052865164e+01
3.171663912780e+01
3.163813624644e+01
3.183384135051e+01
3.029549450351e+01
3.029539270908e+01
3.029536126295e+01
3.029576162624e+01
3.028861779941e+01
3.028852936587e+01
3.028831796028e+01
3.028890636098e+01
3.029567613708e+01
3.029351688938e+01
3.028989356330e+01
3.028985178263e+01
3.029362084751e+01
3.029580377010e+01
3.029656190008e+01
3.029668494342e+01
3.029618760268e+01
3.029561724155e+01
3.029351245149e+01
3.028987624148e+01
3.029640534940e+01
3.029663668240e+01
3.029615980892e+01
3.029571649311e+01