TITLE = "Contraflow instance 0"
VARIABLES = "Depth" "T_s" "T_in" "T_out" "flux_1" "flux2"
ZONE T="TIME=3.600000000000e+03"
0.000000000000e+00	2.910479412702e+01	0.000000000000e+00	3.180718360987e+01	-9.730505538254e+01	9.034805645630e+00
2.000000000000e+00	3.097178023911e+01	9.087393964268e+00	3.357057182860e+01	-2.926612583746e+02	3.475380151314e+01
4.000000000000e+00	3.240608429953e+01	1.594488065432e+01	3.513096834699e+01	-2.201366998674e+02	3.644004379364e+01
6.000000000000e+00	3.336665320650e+01	2.111488400574e+01	3.665493006381e+01	-1.638436713087e+02	4.397433087037e+01
8.000000000000e+00	3.434236847774e+01	2.504369068493e+01	3.827155454134e+01	-1.243517962938e+02	5.254524953631e+01
1.000000000000e+01	3.378759872549e+01	2.757115647513e+01	3.409233285342e+01	-1.662657374763e+02	8.150456880924e+00
2.000000000000e+01	3.495855008087e+01	3.323343397963e+01	3.449133723867e+01	-1.153504244282e+02	-3.124033194501e+01
3.000000000000e+01	3.436174351540e+01	3.439296027128e+01	3.402606093264e+01	2.087318087157e+00	-2.244552025582e+01
4.000000000000e+01	3.383090627486e+01	3.412582911025e+01	3.358912428486e+01	1.972010707643e+01	-1.616682792872e+01
5.000000000000e+01	3.341704483170e+01	3.369474917803e+01	3.327480534462e+01	1.856878745234e+01	-9.510887524386e+00
6.000000000000e+01	3.315572833233e+01	3.334853675498e+01	3.310069241115e+01	1.289219512228e+01	-3.679993979644e+00
7.000000000000e+01	3.303801541223e+01	3.313848732388e+01	3.304402171305e+01	6.718085608254e+00	4.016131716057e-01
8.000000000000e+01	3.308576040711e+01	3.307069618769e+01	3.292357007683e+01	-1.007273714494e+00	-1.084490685690e+01
9.000000000000e+01	3.310862663421e+01	3.304742812505e+01	3.207276720277e+01	-1.636822936419e+00	-2.770522516824e+01
9.200000000000e+01	3.316850662016e+01	3.303844200430e+01	3.162055508646e+01	-1.739362194982e+00	-2.070085210825e+01
9.400000000000e+01	3.314686774651e+01	3.302135340300e+01	3.096863408633e+01	-1.678511119903e+00	-2.912965417512e+01
9.600000000000e+01	3.317159348379e+01	3.298667442418e+01	3.003951381860e+01	-2.472934082043e+00	-4.188549610814e+01
9.800000000000e+01	3.289946164676e+01	3.289505196439e+01	2.876735505865e+01	-5.897095653069e-02	-5.525891832775e+01
1.000000000000e+02	3.349121022938e+01	3.316270151174e+01	3.316270151174e+01	-4.393167506878e+00	-4.393167506878e+00
