# vtk DataFile Version 3.0
Unstructured Grid from OpenGeoSys
ASCII
DATASET UNSTRUCTURED_GRID
FIELD TimesAndCycles 2
TIME 1 1 double
3.600000000000e+03
CYLCE 1 1 long
1
POINTS 1394 double
0.000000000000e+00 0.000000000000e+00 0.000000000000e+00
5.000000000000e+00 0.000000000000e+00 0.000000000000e+00
5.000000000000e+00 5.000000000000e+00 0.000000000000e+00
0.000000000000e+00 5.000000000000e+00 0.000000000000e+00
2.244234909000e+00 2.244234909000e+00 0.000000000000e+00
2.755765091000e+00 2.244234909000e+00 0.000000000000e+00
2.755765091000e+00 2.755765091000e+00 0.000000000000e+00
2.244234909000e+00 2.755765091000e+00 0.000000000000e+00
7.141316008320e-01 7.141316008320e-01 0.000000000000e+00
1.314642334730e+00 1.314642334730e+00 0.000000000000e+00
1.819609643610e+00 1.819609643610e+00 0.000000000000e+00
1.819609643610e+00 3.180390356390e+00 0.000000000000e+00
1.314642334740e+00 3.685357665260e+00 0.000000000000e+00
7.141316008360e-01 4.285868399160e+00 0.000000000000e+00
0.000000000000e+00 3.750000000000e+00 0.000000000000e+00
0.000000000000e+00 2.500000000000e+00 0.000000000000e+00
0.000000000000e+00 1.250000000000e+00 0.000000000000e+00
4.285868399170e+00 7.141316008320e-01 0.000000000000e+00
3.685357665270e+00 1.314642334730e+00 0.000000000000e+00
3.180390356390e+00 1.819609643610e+00 0.000000000000e+00
1.250000000000e+00 0.000000000000e+00 0.000000000000e+00
2.500000000000e+00 0.000000000000e+00 0.000000000000e+00
3.750000000000e+00 0.000000000000e+00 0.000000000000e+00
4.285868399170e+00 4.285868399170e+00 0.000000000000e+00
3.685357665270e+00 3.685357665270e+00 0.000000000000e+00
3.180390356390e+00 3.180390356390e+00 0.000000000000e+00
5.000000000000e+00 1.250000000000e+00 0.000000000000e+00
5.000000000000e+00 2.500000000000e+00 0.000000000000e+00
5.000000000000e+00 3.750000000000e+00 0.000000000000e+00
3.750000000000e+00 5.000000000000e+00 0.000000000000e+00
2.500000000000e+00 5.000000000000e+00 0.000000000000e+00
1.250000000000e+00 5.000000000000e+00 0.000000000000e+00
9.560744151940e-01 2.677827143250e+00 0.000000000000e+00
6.659597640160e-01 1.438876720610e+00 0.000000000000e+00
2.309219871940e+00 9.522638293400e-01 0.000000000000e+00
3.458157207860e+00 6.354750772000e-01 0.000000000000e+00
4.043925584810e+00 2.322172856750e+00 0.000000000000e+00
4.334040235980e+00 3.561123279390e+00 0.000000000000e+00
2.318530875810e+00 4.048536535600e+00 0.000000000000e+00
3.552396921680e+00 4.370927842320e+00 0.000000000000e+00
2.500000000000e+00 2.500000000000e+00 0.000000000000e+00
0.000000000000e+00 0.000000000000e+00 -5.000000000000e-01
5.000000000000e+00 0.000000000000e+00 -5.000000000000e-01
5.000000000000e+00 5.000000000000e+00 -5.000000000000e-01
0.000000000000e+00 5.000000000000e+00 -5.000000000000e-01
2.244234909000e+00 2.244234909000e+00 -5.000000000000e-01
2.755765091000e+00 2.244234909000e+00 -5.000000000000e-01
2.755765091000e+00 2.755765091000e+00 -5.000000000000e-01
2.244234909000e+00 2.755765091000e+00 -5.000000000000e-01
7.141316008320e-01 7.141316008320e-01 -5.000000000000e-01
1.314642334730e+00 1.314642334730e+00 -5.000000000000e-01
1.819609643610e+00 1.819609643610e+00 -5.000000000000e-01
1.819609643610e+00 3.180390356390e+00 -5.000000000000e-01
1.314642334740e+00 3.685357665260e+00 -5.000000000000e-01
7.141316008360e-01 4.285868399160e+00 -5.000000000000e-01
0.000000000000e+00 3.750000000000e+00 -5.000000000000e-01
0.000000000000e+00 2.500000000000e+00 -5.000000000000e-01
0.000000000000e+00 1.250000000000e+00 -5.000000000000e-01
4.285868399170e+00 7.141316008320e-01 -5.000000000000e-01
3.685357665270e+00 1.314642334730e+00 -5.000000000000e-01
3.180390356390e+00 1.819609643610e+00 -5.000000000000e-01
1.250000000000e+00 0.000000000000e+00 -5.000000000000e-01
2.500000000000e+00 0.000000000000e+00 -5.000000000000e-01
3.750000000000e+00 0.000000000000e+00 -5.000000000000e-01
4.285868399170e+00 4.285868399170e+00 -5.000000000000e-01
3.685357665270e+00 3.685357665270e+00 -5.000000000000e-01
3.180390356390e+00 3.180390356390e+00 -5.000000000000e-01
5.000000000000e+00 1.250000000000e+00 -5.000000000000e-01
5.000000000000e+00 2.500000000000e+00 -5.000000000000e-01
5.000000000000e+00 3.750000000000e+00 -5.000000000000e-01
3.750000000000e+00 5.000000000000e+00 -5.000000000000e-01
2.500000000000e+00 5.000000000000e+00 -5.000000000000e-01
1.250000000000e+00 5.000000000000e+00 -5.000000000000e-01
9.560744151940e-01 2.677827143250e+00 -5.000000000000e-01
6.659597640160e-01 1.438876720610e+00 -5.000000000000e-01
2.309219871940e+00 9.522638293400e-01 -5.000000000000e-01
3.458157207860e+00 6.354750772000e-01 -5.000000000000e-01
4.043925584810e+00 2.322172856750e+00 -5.000000000000e-01
4.334040235980e+00 3.561123279390e+00 -5.000000000000e-01
2.318530875810e+00 4.048536535600e+00 -5.000000000000e-01
3.552396921680e+00 4.370927842320e+00 -5.000000000000e-01
2.500000000000e+00 2.500000000000e+00 -5.000000000000e-01
0.000000000000e+00 0.000000000000e+00 -1.000000000000e+00
5.000000000000e+00 0.000000000000e+00 -1.000000000000e+00
5.000000000000e+00 5.000000000000e+00 -1.000000000000e+00
0.000000000000e+00 5.000000000000e+00 -1.000000000000e+00
2.244234909000e+00 2.244234909000e+00 -1.000000000000e+00
2.755765091000e+00 2.244234909000e+00 -1.000000000000e+00
2.755765091000e+00 2.755765091000e+00 -1.000000000000e+00
2.244234909000e+00 2.755765091000e+00 -1.000000000000e+00
7.141316008320e-01 7.141316008320e-01 -1.000000000000e+00
1.314642334730e+00 1.314642334730e+00 -1.000000000000e+00
1.819609643610e+00 1.819609643610e+00 -1.000000000000e+00
1.819609643610e+00 3.180390356390e+00 -1.000000000000e+00
1.314642334740e+00 3.685357665260e+00 -1.000000000000e+00
7.141316008360e-01 4.285868399160e+00 -1.000000000000e+00
0.000000000000e+00 3.750000000000e+00 -1.000000000000e+00
0.000000000000e+00 2.500000000000e+00 -1.000000000000e+00
0.000000000000e+00 1.250000000000e+00 -1.000000000000e+00
4.285868399170e+00 7.141316008320e-01 -1.000000000000e+00
3.685357665270e+00 1.314642334730e+00 -1.000000000000e+00
3.180390356390e+00 1.819609643610e+00 -1.000000000000e+00
1.250000000000e+00 0.000000000000e+00 -1.000000000000e+00
2.500000000000e+00 0.000000000000e+00 -1.000000000000e+00
3.750000000000e+00 0.000000000000e+00 -1.000000000000e+00
4.285868399170e+00 4.285868399170e+00 -1.000000000000e+00
3.685357665270e+00 3.685357665270e+00 -1.000000000000e+00
3.180390356390e+00 3.180390356390e+00 -1.000000000000e+00
5.000000000000e+00 1.250000000000e+00 -1.000000000000e+00
5.000000000000e+00 2.500000000000e+00 -1.000000000000e+00
5.000000000000e+00 3.750000000000e+00 -1.000000000000e+00
3.750000000000e+00 5.000000000000e+00 -1.000000000000e+00
2.500000000000e+00 5.000000000000e+00 -1.000000000000e+00
1.250000000000e+00 5.000000000000e+00 -1.000000000000e+00
9.560744151940e-01 2.677827143250e+00 -1.000000000000e+00
6.659597640160e-01 1.438876720610e+00 -1.000000000000e+00
2.309219871940e+00 9.522638293400e-01 -1.000000000000e+00
3.458157207860e+00 6.354750772000e-01 -1.000000000000e+00
4.043925584810e+00 2.322172856750e+00 -1.000000000000e+00
4.334040235980e+00 3.561123279390e+00 -1.000000000000e+00
2.318530875810e+00 4.048536535600e+00 -1.000000000000e+00
3.552396921680e+00 4.370927842320e+00 -1.000000000000e+00
2.500000000000e+00 2.500000000000e+00 -1.000000000000e+00
0.000000000000e+00 0.000000000000e+00 -3.000000000000e+00
5.000000000000e+00 0.000000000000e+00 -3.000000000000e+00
5.000000000000e+00 5.000000000000e+00 -3.000000000000e+00
0.000000000000e+00 5.000000000000e+00 -3.000000000000e+00
2.244234909000e+00 2.244234909000e+00 -3.000000000000e+00
2.755765091000e+00 2.244234909000e+00 -3.000000000000e+00
2.755765091000e+00 2.755765091000e+00 -3.000000000000e+00
2.244234909000e+00 2.755765091000e+00 -3.000000000000e+00
7.141316008320e-01 7.141316008320e-01 -3.000000000000e+00
1.314642334730e+00 1.314642334730e+00 -3.000000000000e+00
1.819609643610e+00 1.819609643610e+00 -3.000000000000e+00
1.819609643610e+00 3.180390356390e+00 -3.000000000000e+00
1.314642334740e+00 3.685357665260e+00 -3.000000000000e+00
7.141316008360e-01 4.285868399160e+00 -3.000000000000e+00
0.000000000000e+00 3.750000000000e+00 -3.000000000000e+00
0.000000000000e+00 2.500000000000e+00 -3.000000000000e+00
0.000000000000e+00 1.250000000000e+00 -3.000000000000e+00
4.285868399170e+00 7.141316008320e-01 -3.000000000000e+00
3.685357665270e+00 1.314642334730e+00 -3.000000000000e+00
3.180390356390e+00 1.819609643610e+00 -3.000000000000e+00
1.250000000000e+00 0.000000000000e+00 -3.000000000000e+00
2.500000000000e+00 0.000000000000e+00 -3.000000000000e+00
3.750000000000e+00 0.000000000000e+00 -3.000000000000e+00
4.285868399170e+00 4.285868399170e+00 -3.000000000000e+00
3.685357665270e+00 3.685357665270e+00 -3.000000000000e+00
3.180390356390e+00 3.180390356390e+00 -3.000000000000e+00
5.000000000000e+00 1.250000000000e+00 -3.000000000000e+00
5.000000000000e+00 2.500000000000e+00 -3.000000000000e+00
5.000000000000e+00 3.750000000000e+00 -3.000000000000e+00
3.750000000000e+00 5.000000000000e+00 -3.000000000000e+00
2.500000000000e+00 5.000000000000e+00 -3.000000000000e+00
1.250000000000e+00 5.000000000000e+00 -3.000000000000e+00
9.560744151940e-01 2.677827143250e+00 -3.000000000000e+00
6.659597640160e-01 1.438876720610e+00 -3.000000000000e+00
2.309219871940e+00 9.522638293400e-01 -3.000000000000e+00
3.458157207860e+00 6.354750772000e-01 -3.000000000000e+00
4.043925584810e+00 2.322172856750e+00 -3.000000000000e+00
4.334040235980e+00 3.561123279390e+00 -3.000000000000e+00
2.318530875810e+00 4.048536535600e+00 -3.000000000000e+00
3.552396921680e+00 4.370927842320e+00 -3.000000000000e+00
2.500000000000e+00 2.500000000000e+00 -3.000000000000e+00
0.000000000000e+00 0.000000000000e+00 -5.000000000000e+00
5.000000000000e+00 0.000000000000e+00 -5.000000000000e+00
5.000000000000e+00 5.000000000000e+00 -5.000000000000e+00
0.000000000000e+00 5.000000000000e+00 -5.000000000000e+00
2.244234909000e+00 2.244234909000e+00 -5.000000000000e+00
[...]
POINT_DATA 1394
SCALARS TEMPERATURE1 double 1
LOOKUP_TABLE default
1.000000000000e+01
1.000000000000e+01
1.000000000000e+01
1.000000000000e+01
1.000000000000e+01
1.000000000000e+01
1.000000000000e+01
1.000000000000e+01
1.000000000000e+01
1.000000000000e+01
1.000000000000e+01
1.000000000000e+01
1.000000000000e+01
1.000000000000e+01
1.000000000000e+01
1.000000000000e+01
1.000000000000e+01
1.000000000000e+01
1.000000000000e+01
1.000000000000e+01
1.000000000000e+01
1.000000000000e+01
1.000000000000e+01
1.000000000000e+01
1.000000000000e+01
1.000000000000e+01
1.000000000000e+01
1.000000000000e+01
1.000000000000e+01
1.000000000000e+01
1.000000000000e+01
1.000000000000e+01
1.000000000000e+01
1.000000000000e+01
1.000000000000e+01
1.000000000000e+01
1.000000000000e+01
1.000000000000e+01
1.000000000000e+01
1.000000000000e+01
1.000000000000e+01
2.681092826085e+01
2.681084681472e+01
2.680962416201e+01
2.681223632293e+01
2.740416799462e+01
2.740476751498e+01
2.741332712794e+01
2.738945670859e+01
2.680938964543e+01
2.681251763988e+01
2.699258461823e+01
2.699691121066e+01
2.680705580196e+01
2.681070315057e+01
2.681377743223e+01
2.680547579437e+01
2.681141177877e+01
2.680920971595e+01
2.681149901474e+01
2.698711511629e+01
2.681305623680e+01
2.680591129255e+01
2.681136229466e+01
2.680719208207e+01
2.681668932669e+01
2.697985525731e+01
2.681293960650e+01
2.680566922033e+01
2.681077643645e+01
2.681101799017e+01
2.680540935330e+01
2.681363936115e+01
2.677649820791e+01
2.680432462333e+01
2.677720719263e+01
2.680363369902e+01
2.677854672446e+01
2.680458721980e+01
2.677742870879e+01
2.680479403317e+01
2.920875589115e+01
3.034085780927e+01
3.034086311549e+01
3.033447969807e+01
3.034566938093e+01
2.856546265220e+01
2.863217313946e+01
2.874529176176e+01
2.846365723887e+01
3.033651560462e+01
3.051882213374e+01
3.055173497783e+01
3.056980538882e+01
3.051983051666e+01
3.032722551090e+01
3.029416344777e+01
3.031986300656e+01
3.033339741171e+01
3.033793579486e+01
3.051880063345e+01
3.056582438730e+01
3.029570718795e+01
3.031987831717e+01
3.033236484138e+01
3.034594800227e+01
3.051581244600e+01
3.054312846896e+01
3.029641609810e+01
3.032066865263e+01
3.033426852640e+01
3.033316393742e+01
3.032092977778e+01
3.029528058505e+01
3.053975614130e+01
3.036599721148e+01
3.053668128620e+01
3.036430596540e+01
3.053223390790e+01
3.036957567943e+01
3.053463121577e+01
3.036385112517e+01
1.959248841775e+01
2.993883146869e+01
2.993954089948e+01
2.993745669900e+01
2.993827220497e+01
2.798434487016e+01
2.804211710927e+01
2.816330357797e+01
2.785689565964e+01
2.995561158311e+01
3.018025807878e+01
3.014499344113e+01
3.016202198238e+01
3.018382190893e+01
2.994678681613e+01
2.990248396447e+01
2.995481329868e+01
2.994429000852e+01
2.995709384443e+01
3.018089878785e+01
3.016151811739e+01
2.990547068975e+01
2.995397323222e+01
2.994283657641e+01
2.996410514775e+01
3.017675593600e+01
3.014129723786e+01
2.990547607667e+01
2.995419805622e+01
2.994678154563e+01
2.994534683234e+01
2.995546738681e+01
2.990308822462e+01
3.023212665573e+01
3.000632665621e+01
3.022894471735e+01
3.000553839598e+01
3.022460310581e+01
3.000986594854e+01
3.022673598074e+01
3.000266759623e+01
2.079676665987e+01
3.000462135028e+01
3.000519744374e+01
3.000173900077e+01
3.000551726478e+01
2.814875660641e+01
2.820547403544e+01
2.834113991582e+01
2.799477794823e+01
3.001703342930e+01
3.024105949153e+01
3.026563203394e+01
3.028627402650e+01
3.024239758990e+01
3.000822187541e+01
2.996557991816e+01
3.001187038157e+01
3.000761109713e+01
3.001847434438e+01
3.024124230724e+01
3.028112707803e+01
2.996813664271e+01
3.001125878843e+01
3.000622419577e+01
3.002541936125e+01
3.023889214179e+01
3.025597366503e+01
2.996821670625e+01
3.001153301992e+01
3.000976971071e+01
3.000838914993e+01
3.001260064819e+01
2.996622293552e+01
3.027863692478e+01
3.006367752327e+01
3.027569858177e+01
3.006245562163e+01
3.027170756450e+01
3.006724984085e+01
3.027353280992e+01
3.006021599206e+01
2.175163405731e+01
2.999855908186e+01
2.999911820052e+01
2.999541534393e+01
2.999969937873e+01
2.815869087583e+01
2.821274581266e+01
2.835722847034e+01
2.798591254281e+01
3.001004774056e+01
3.023175163640e+01
3.027100500080e+01
3.029333482422e+01
3.023234114886e+01
3.000140897331e+01
2.995951465417e+01
3.000407988438e+01
3.000104997773e+01
3.001144307418e+01
3.023176846333e+01
3.028619560455e+01
2.996193592799e+01
3.000349757048e+01
2.999970262952e+01
3.001824907692e+01
3.023007091304e+01
3.025879003345e+01
2.996198608402e+01
3.000375206745e+01
3.000315987361e+01
3.000179524953e+01
3.000479434698e+01
2.996011220748e+01
3.026544604779e+01
3.005540901033e+01
3.026269431584e+01
3.005409258235e+01
3.025897933069e+01
3.005887662100e+01
3.026060508284e+01
3.005196760320e+01
2.258952940237e+01
2.999836673316e+01
2.999892749529e+01
2.999497193019e+01
2.999972444171e+01
2.817268452553e+01
2.822313160480e+01
2.838274920400e+01
2.796866368369e+01
3.000905576569e+01
3.022911295593e+01
3.029124195853e+01
3.031631022697e+01
3.022857761501e+01
3.000068712155e+01
2.995943126023e+01
3.000215455678e+01
3.000035122843e+01
3.001037691850e+01
3.022890984530e+01
3.030591521021e+01
2.996168329336e+01
3.000158492561e+01
2.999905266313e+01
3.001692505937e+01
3.022824643262e+01
3.027478773825e+01
2.996165724165e+01
3.000177900490e+01
3.000244851447e+01
3.000109000026e+01
3.000282250974e+01
2.995993384698e+01
3.025747342387e+01
3.005316031094e+01
3.025502514700e+01
3.005170177079e+01
3.025177192837e+01
3.005646870891e+01
3.025305618885e+01
3.004968998711e+01
2.378599127180e+01
2.999862312453e+01
2.999914089334e+01
2.999545197694e+01
2.999985635213e+01
2.821687445029e+01
2.827001351442e+01
2.840608136642e+01
2.805748739284e+01
3.000937096815e+01
3.022418524410e+01
3.025872252604e+01
3.027977898683e+01
3.022494049354e+01
3.000088646102e+01
2.996037360559e+01
3.000338987869e+01
3.000087101405e+01
3.001074867199e+01
3.022422093552e+01
3.027362466790e+01
2.996272667677e+01
3.000285215971e+01
2.999955990241e+01
3.001747111061e+01
3.022235403662e+01
3.024792281440e+01
2.996282122123e+01
3.000313951618e+01
3.000287126061e+01
3.000155521718e+01
3.000411646664e+01
2.996100007694e+01
3.025732598381e+01
3.005316475665e+01
3.025456760920e+01
3.005189736105e+01
3.025081757236e+01
3.005657883055e+01
3.025250079185e+01
3.004987186877e+01
2.251397678555e+01
2.999937220586e+01
2.999979271703e+01
2.999603869263e+01
3.000093030891e+01
2.835181719066e+01
2.839842070931e+01
2.852970888134e+01
2.819174263548e+01
3.000746126217e+01
3.019894896726e+01
3.023489153416e+01
3.025544916962e+01
3.019919242931e+01
2.999976217967e+01
2.996401893769e+01
3.000096784639e+01
3.000055572177e+01
3.000868840952e+01
3.019883821595e+01
3.024853919390e+01
2.996601500388e+01
3.000053372206e+01
2.999941355220e+01
3.001490110149e+01
3.019741316192e+01
3.022334869249e+01
2.996612251551e+01
3.000083388127e+01
3.000227089329e+01
3.000109711576e+01
3.000165286338e+01
2.996459098509e+01
3.022649156049e+01
3.004552673852e+01
3.022408868908e+01
3.004430322380e+01
3.022081509289e+01
3.004854075467e+01
3.022227041758e+01
3.004260002680e+01
2.358380130729e+01
2.999971351220e+01
3.000006342830e+01
2.999653628396e+01
3.000129109042e+01
2.845092072632e+01
2.849327223062e+01
2.861419009659e+01
2.830290706423e+01
3.000623212302e+01
3.017608878289e+01
3.019784179330e+01
3.021665441801e+01
3.017651967260e+01
2.999920253642e+01
2.996759434214e+01
3.000025846188e+01
3.000048418842e+01
3.000733975093e+01
3.017597274761e+01
3.021055793230e+01
2.996936312016e+01
2.999988646818e+01
2.999947576366e+01
3.001314837458e+01
3.017438772655e+01
3.018748761300e+01
2.996948834588e+01
3.000020477924e+01
3.000197545756e+01
3.000093029895e+01
3.000090235394e+01
2.996813122225e+01
3.020199873195e+01
3.003985335254e+01
3.019981571317e+01
3.003878290080e+01
3.019683147044e+01
3.004253201714e+01
3.019820778348e+01
3.003725802546e+01
2.402894246223e+01
2.999990120342e+01
3.000020048220e+01
2.999690442861e+01
3.000144298088e+01
2.853183104934e+01
2.857068989592e+01
2.868310747535e+01
2.839364891909e+01
3.000529439483e+01
3.015771805629e+01
3.016739568833e+01
3.018474700868e+01
3.015832651792e+01
2.999882121492e+01
2.997048625319e+01
2.999983677399e+01
3.000039035027e+01
3.000630337276e+01
3.015760943152e+01
3.017933686777e+01
2.997208073037e+01
2.999950579805e+01
2.999948920890e+01
3.001176470554e+01
3.015588788641e+01
3.015803872432e+01
2.997221319462e+01
2.999983133487e+01
3.000171518497e+01
3.000077117106e+01
3.000044055218e+01
2.997098824127e+01
3.018253030862e+01
3.003543607913e+01
3.018053022501e+01
3.003449568719e+01
3.017778834688e+01
3.003783811789e+01
3.017909433628e+01
3.003309918829e+01
2.439854836093e+01
3.000005192112e+01
3.000031301139e+01
2.999718487248e+01
3.000157247891e+01
2.859960638689e+01
2.863584994229e+01
2.874152349806e+01
2.846943217611e+01
3.000460526508e+01
3.014415902237e+01
3.014610484373e+01
3.016232858127e+01
3.014487158460e+01
2.999855236389e+01
2.997264619545e+01
2.999949439615e+01
3.000032492892e+01
3.000554117905e+01
3.014405371322e+01
3.015742632497e+01
2.997410874459e+01
2.999919649276e+01
2.999950266966e+01
3.001072895316e+01
3.014226043965e+01
3.013750079484e+01
2.997424759360e+01
2.999952607740e+01
3.000152327528e+01
3.000065530286e+01
3.000006846683e+01
2.997312332508e+01
3.016793504745e+01
3.003214327476e+01
3.016607061033e+01
3.003129434092e+01
3.016350820264e+01
3.003434480225e+01
3.016475920128e+01
3.003000174992e+01
2.468297505720e+01
3.000016470271e+01
3.000039920097e+01
2.999737696722e+01
3.000168003700e+01
2.865423890055e+01
2.868863978122e+01
2.878939462312e+01
2.852998780513e+01
3.000413255565e+01
3.013506723242e+01
3.013335482053e+01
3.014879278536e+01
3.013580911043e+01
2.999837290173e+01
2.997410836342e+01
2.999920001645e+01
3.000027253858e+01
3.000501889255e+01
3.013495986623e+01
3.014420622306e+01
2.997547752111e+01
2.999892742304e+01
2.999950326011e+01
3.001000318742e+01
3.013316012934e+01
3.012524272656e+01
2.997562145980e+01
2.999925800116e+01
3.000138231373e+01
3.000056658257e+01
2.999975390542e+01
2.997456933659e+01
3.015785107761e+01
3.002987661111e+01
3.015608035215e+01
3.002908207324e+01
3.015364155581e+01
3.003194675323e+01
3.015484980440e+01
3.002787047493e+01
2.489864399524e+01
3.000024409404e+01
3.000046211212e+01
2.999748960023e+01
3.000176906259e+01
2.869617431183e+01
2.872948588480e+01
2.882677134909e+01
2.857639023227e+01
3.000385758199e+01
3.013008030197e+01
3.012800359582e+01
3.014292920986e+01
3.013080155711e+01
2.999826848847e+01
2.997491759079e+01
2.999895462239e+01
3.000023231216e+01
3.000471726589e+01
3.012996917753e+01
3.013853599863e+01
2.997623089026e+01
2.999870033097e+01
2.999949181445e+01
3.000956948128e+01
3.012820423627e+01
3.012021554513e+01
2.997638058001e+01
2.999903081052e+01
3.000128795645e+01
3.000050249814e+01
2.999949833379e+01
2.997537243355e+01
3.015200133902e+01
3.002856079138e+01
3.015028055485e+01
3.002778861106e+01
3.014790550279e+01
3.003056521994e+01
3.014908863864e+01
3.002663581662e+01
2.503258137346e+01
3.000026355656e+01
3.000047737093e+01
2.999752817310e+01
3.000178515605e+01
2.872314064132e+01
2.875599532499e+01
2.885123631358e+01
2.860622737535e+01
3.000378757306e+01
3.012878739580e+01
3.012824146155e+01
3.014289051035e+01
3.012947373022e+01
2.999826026551e+01
2.997512991200e+01
2.999883059785e+01
3.000018358085e+01
3.000464052467e+01
3.012867903663e+01
3.013860766689e+01
2.997642721567e+01
2.999858199609e+01
2.999945054060e+01
3.000942552985e+01
3.012696359632e+01
3.012065731728e+01
2.997657993145e+01
2.999890893251e+01
3.000122538466e+01
3.000044800089e+01
2.999936994315e+01
2.997558451749e+01
3.015020535395e+01
3.002818684148e+01
3.014849695693e+01
3.002741340565e+01
3.014613364416e+01
3.003017908142e+01
3.014730726662e+01
3.002628761011e+01
2.509473723998e+01
3.000012831958e+01
3.000033563673e+01
2.999745545645e+01
3.000160268399e+01
2.875170662770e+01
2.878601020809e+01
2.887204532239e+01
2.865276319913e+01
3.000391924429e+01
3.013047122114e+01
3.012496787220e+01
3.013814826002e+01
3.013155251815e+01
2.999826773060e+01
2.997474776136e+01
2.999912115182e+01
3.000017271288e+01
3.000481406019e+01
3.013045420733e+01
3.013543287377e+01
2.997611521319e+01
2.999888017381e+01
2.999941226262e+01
3.000967667903e+01
3.012838459120e+01
3.011952450502e+01
2.997631512871e+01
2.999923554258e+01
3.000120837189e+01
3.000042865939e+01
2.999968889348e+01
2.997525921287e+01
3.015338800447e+01
3.002884427184e+01
3.015152324483e+01
3.002810578639e+01
3.014891484794e+01
3.003094288108e+01
3.015024869561e+01
3.002697021075e+01
2.457610207365e+01
3.000007127724e+01
3.000028363520e+01
2.999744389516e+01
3.000150147763e+01
2.874997768957e+01
2.878431860391e+01
2.886983567484e+01
2.865195906427e+01
3.000398501821e+01
3.013080962247e+01
3.012377190772e+01
3.013683297142e+01
3.013195638698e+01
2.999832436701e+01
2.997468070686e+01
2.999926344117e+01
3.000014319952e+01
3.000488265676e+01
3.013081136570e+01
3.013426450752e+01
2.997606389785e+01
2.999901317618e+01
2.999938027832e+01
3.000974973159e+01
3.012869280075e+01
3.011852589221e+01
2.997626201482e+01
2.999936602816e+01
3.000119452657e+01
3.000040989967e+01
2.999982846535e+01
2.997519177835e+01
3.015416316085e+01
3.002907346425e+01
3.015228854844e+01
3.002834274544e+01
3.014966322845e+01
3.003117464500e+01
3.015100752460e+01
3.002718859519e+01
2.453682201651e+01
3.000001509163e+01
3.000022195998e+01
2.999741829192e+01
3.000142471128e+01
2.875353880879e+01
2.878865373457e+01
2.886984552535e+01
2.866411063540e+01
3.000400406069e+01
3.013103158138e+01
3.011908647144e+01
3.013141453853e+01
3.013243482636e+01
2.999827556650e+01
2.997453494847e+01
2.999941189460e+01
3.000013774532e+01
3.000492119858e+01
3.013108380833e+01
3.012968762043e+01
2.997595207224e+01
2.999916477154e+01
2.999936489066e+01
3.000985282157e+01
3.012872378794e+01
3.011496271428e+01
2.997617557101e+01
2.999953697159e+01
3.000118227529e+01
3.000039819212e+01
2.999999238422e+01
2.997507505470e+01
3.015546887363e+01
3.002927826819e+01
3.015351545241e+01
3.002857622404e+01
3.015076590386e+01
3.003142155420e+01
3.015219965185e+01
3.002741053219e+01
2.426633995130e+01
2.999983179339e+01
3.000004676811e+01
2.999737936113e+01
3.000111443878e+01
2.876829892632e+01
2.880373566476e+01
2.888080026748e+01
2.868639243179e+01
3.000418488697e+01
3.013107394184e+01
3.011517851836e+01
3.012677338369e+01
3.013269734349e+01
2.999846592861e+01
2.997460367903e+01
2.999991073016e+01
3.000012866416e+01
3.000510940855e+01
3.013118390875e+01
3.012574685998e+01
2.997605949585e+01
2.999965034972e+01
2.999934783680e+01
3.001001451806e+01
3.012865830229e+01
3.011200091982e+01
2.997628684054e+01
3.000001931424e+01
3.000119089748e+01
3.000040596007e+01
3.000048671233e+01
2.997515090354e+01
3.015653225761e+01
3.002973798577e+01
3.015453689522e+01
3.002907176137e+01
3.015172201879e+01
3.003189830497e+01
3.015320221105e+01
3.002787384844e+01
2.401038355512e+01
2.999985083337e+01
3.000003144390e+01
2.999724270611e+01
3.000127253030e+01
2.874781828455e+01
2.878662320109e+01
2.885073080455e+01
2.869340958659e+01
3.000413379133e+01
3.013581457065e+01
3.010425798471e+01
3.011376649461e+01
3.013828916616e+01
2.999794075125e+01
2.997315515464e+01
2.999984449748e+01
3.000015193603e+01
3.000516602301e+01
3.013606742717e+01
3.011565555064e+01
2.997474850697e+01
2.999961591640e+01
2.999931549043e+01
3.001052431204e+01
3.013265231592e+01
3.010499491502e+01
2.997509934451e+01
3.000009196065e+01
3.000118477205e+01
3.000038267483e+01
3.000051925297e+01
2.997384669514e+01
3.016518775733e+01
3.003082208852e+01
3.016282869372e+01
3.003021056313e+01
3.015944025117e+01
3.003321395548e+01
3.016130815808e+01
3.002898098593e+01
2.316322302248e+01
3.000055626058e+01
3.000069801167e+01
2.999846339232e+01
3.000183233981e+01
2.891171660641e+01
2.893932075937e+01
2.902618674585e+01
2.880070870622e+01
3.000186348276e+01
3.008338547947e+01
3.007513341671e+01
3.008797471424e+01
3.008380537821e+01
2.999803907055e+01
2.998315185743e+01
2.999811562637e+01
2.999997603398e+01
3.000238369610e+01
3.008321327459e+01
3.008241046750e+01
2.998392877037e+01
2.999794726593e+01
2.999951077360e+01
3.000587901998e+01
3.008195019199e+01
3.006551392534e+01
2.998397117149e+01
2.999816211030e+01
3.000061495678e+01
3.000010111101e+01
2.999845123308e+01
2.998338635861e+01
3.009799189102e+01
3.001740959575e+01
3.009702341021e+01
3.001688181804e+01
3.009579685555e+01
3.001865401370e+01
3.009644813448e+01
3.001613891645e+01
2.530728166793e+01
2.999999157240e+01
3.000002051091e+01
2.999901270633e+01
3.000055426560e+01
2.999625297247e+01
3.000126702312e+01
2.999261945104e+01
3.001984310705e+01
3.000185690797e+01
3.005173638493e+01
3.008373482834e+01
3.008366105966e+01
3.005164368075e+01
2.999998745300e+01
2.999092147669e+01
2.999944720640e+01
3.000019320524e+01
3.000227360134e+01
3.005178229188e+01
3.008644826006e+01
2.999145787751e+01
2.999945685787e+01
2.999987132858e+01
3.000350500647e+01
3.005166193062e+01
3.008834291671e+01
2.999167824154e+01
2.999961526227e+01
3.000051682287e+01
3.000025467480e+01
2.999973067896e+01
2.999126700909e+01
3.005492802113e+01
3.001100503733e+01
3.005395425111e+01
3.001063050582e+01
3.005242299056e+01
3.001202109948e+01
3.005310902230e+01
3.001044507211e+01
3.053610061847e+01
2.999966701146e+01
2.999973771427e+01
2.999954728772e+01
2.999961264415e+01
3.011441286504e+01
3.011327631639e+01
3.011404203583e+01
3.011168832011e+01
3.000148511391e+01
3.002364658806e+01
3.006466019493e+01
3.006562683513e+01
3.002266996382e+01
3.000112713788e+01
2.999702578865e+01
3.000050846477e+01
3.000011020334e+01
3.000159340895e+01
3.002357594588e+01
3.006469228996e+01
2.999719875414e+01
3.000047215486e+01
2.999998064674e+01
3.000152182079e+01
3.002459652143e+01
3.006403000588e+01
2.999717822419e+01
3.000040678899e+01
3.000033749175e+01
3.000022012099e+01
3.000053376199e+01
2.999705454095e+01
3.002045896749e+01
3.000552322549e+01
3.002030414018e+01
3.000526849491e+01
3.002006337986e+01
3.000586261788e+01
3.002000918847e+01
3.000521257706e+01
3.002959830964e+01
2.999990060646e+01
2.999992065847e+01
2.999983338280e+01
2.999991480176e+01
3.002386216656e+01
3.002457728992e+01
3.002590464017e+01
3.002255605602e+01
3.000046968826e+01
3.000746813344e+01
3.002168988620e+01
3.002213887401e+01
3.000713841573e+01
3.000035385085e+01
2.999916950729e+01
3.000020041010e+01
3.000013697804e+01
3.000050122181e+01
3.000742853648e+01
3.002165467558e+01
2.999921450861e+01
3.000020067947e+01
3.000009059237e+01
3.000048198096e+01
3.000775680402e+01
3.002112549384e+01
2.999920572575e+01
3.000018011699e+01
3.000018380862e+01
3.000015564493e+01
3.000020954735e+01
2.999917707593e+01
3.000615291927e+01
3.000168800387e+01
3.000610788996e+01
3.000160983224e+01
3.000605812616e+01
3.000181039391e+01
3.000603430846e+01
3.000160729284e+01
3.004089264454e+01
2.999998507622e+01
2.999998670389e+01
2.999998256790e+01
2.999998222199e+01
3.000216978989e+01
3.000215891288e+01
3.000209591836e+01
3.000228265997e+01
3.000005137751e+01
3.000065844960e+01
3.000146084111e+01
3.000147148703e+01
3.000064276803e+01
3.000003923594e+01
2.999993429127e+01
3.000005528045e+01
3.000002325935e+01
3.000005499805e+01
3.000065677551e+01
3.000147542815e+01
2.999994044564e+01
3.000005487680e+01
3.000001902630e+01
3.000005713380e+01
3.000067274156e+01
3.000148119316e+01
2.999994061295e+01
3.000005434242e+01
3.000002843916e+01
3.000002581885e+01
3.000005699544e+01
2.999993603916e+01
3.000063586796e+01
3.000017640507e+01
3.000062852221e+01
3.000017242954e+01
3.000061794530e+01
3.000018673529e+01
3.000062003699e+01
3.000016848492e+01
3.000110907157e+01
3.000000348000e+01
3.000000308557e+01
3.000000444355e+01
3.000000391811e+01
2.999942111636e+01
2.999942343809e+01
2.999944018516e+01
2.999939020224e+01
2.999998731988e+01
2.999982754741e+01
2.999961081596e+01
2.999960787253e+01
2.999983183778e+01
2.999999062986e+01
3.000001821050e+01
2.999998762567e+01
2.999999448642e+01
2.999998634541e+01
2.999982803409e+01
2.999960697717e+01
3.000001663972e+01
2.999998769728e+01
2.999999559148e+01
2.999998567447e+01