# vtk DataFile Version 3.0
Unstructured Grid from OpenGeoSys
ASCII
DATASET UNSTRUCTURED_GRID
FIELD TimesAndCycles 2
TIME 1 1 double
3.600000000000e+03
CYLCE 1 1 long
1
POINTS 1394 double
0.000000000000e+00 0.000000000000e+00 0.000000000000e+00
5.000000000000e+00 0.000000000000e+00 0.000000000000e+00
5.000000000000e+00 5.000000000000e+00 0.000000000000e+00
0.000000000000e+00 5.000000000000e+00 0.000000000000e+00
2.244234909000e+00 2.244234909000e+00 0.000000000000e+00
2.755765091000e+00 2.244234909000e+00 0.000000000000e+00
2.755765091000e+00 2.755765091000e+00 0.000000000000e+00
2.244234909000e+00 2.755765091000e+00 0.000000000000e+00
7.141316008320e-01 7.141316008320e-01 0.000000000000e+00
1.314642334730e+00 1.314642334730e+00 0.000000000000e+00
1.819609643610e+00 1.819609643610e+00 0.000000000000e+00
1.819609643610e+00 3.180390356390e+00 0.000000000000e+00
1.314642334740e+00 3.685357665260e+00 0.000000000000e+00
7.141316008360e-01 4.285868399160e+00 0.000000000000e+00
0.000000000000e+00 3.750000000000e+00 0.000000000000e+00
0.000000000000e+00 2.500000000000e+00 0.000000000000e+00
0.000000000000e+00 1.250000000000e+00 0.000000000000e+00
4.285868399170e+00 7.141316008320e-01 0.000000000000e+00
3.685357665270e+00 1.314642334730e+00 0.000000000000e+00
3.180390356390e+00 1.819609643610e+00 0.000000000000e+00
1.250000000000e+00 0.000000000000e+00 0.000000000000e+00
2.500000000000e+00 0.000000000000e+00 0.000000000000e+00
3.750000000000e+00 0.000000000000e+00 0.000000000000e+00
4.285868399170e+00 4.285868399170e+00 0.000000000000e+00
3.685357665270e+00 3.685357665270e+00 0.000000000000e+00
3.180390356390e+00 3.180390356390e+00 0.000000000000e+00
5.000000000000e+00 1.250000000000e+00 0.000000000000e+00
5.000000000000e+00 2.500000000000e+00 0.000000000000e+00
5.000000000000e+00 3.750000000000e+00 0.000000000000e+00
3.750000000000e+00 5.000000000000e+00 0.000000000000e+00
2.500000000000e+00 5.000000000000e+00 0.000000000000e+00
1.250000000000e+00 5.000000000000e+00 0.000000000000e+00
9.560744151940e-01 2.677827143250e+00 0.000000000000e+00
6.659597640160e-01 1.438876720610e+00 0.000000000000e+00
2.309219871940e+00 9.522638293400e-01 0.000000000000e+00
3.458157207860e+00 6.354750772000e-01 0.000000000000e+00
4.043925584810e+00 2.322172856750e+00 0.000000000000e+00
4.334040235980e+00 3.561123279390e+00 0.000000000000e+00
2.318530875810e+00 4.048536535600e+00 0.000000000000e+00
3.552396921680e+00 4.370927842320e+00 0.000000000000e+00
2.500000000000e+00 2.500000000000e+00 0.000000000000e+00
0.000000000000e+00 0.000000000000e+00 -5.000000000000e-01
5.000000000000e+00 0.000000000000e+00 -5.000000000000e-01
5.000000000000e+00 5.000000000000e+00 -5.000000000000e-01
0.000000000000e+00 5.000000000000e+00 -5.000000000000e-01
2.244234909000e+00 2.244234909000e+00 -5.000000000000e-01
2.755765091000e+00 2.244234909000e+00 -5.000000000000e-01
2.755765091000e+00 2.755765091000e+00 -5.000000000000e-01
2.244234909000e+00 2.755765091000e+00 -5.000000000000e-01
7.141316008320e-01 7.141316008320e-01 -5.000000000000e-01
1.314642334730e+00 1.314642334730e+00 -5.000000000000e-01
1.819609643610e+00 1.819609643610e+00 -5.000000000000e-01
1.819609643610e+00 3.180390356390e+00 -5.000000000000e-01
1.314642334740e+00 3.685357665260e+00 -5.000000000000e-01
7.141316008360e-01 4.285868399160e+00 -5.000000000000e-01
0.000000000000e+00 3.750000000000e+00 -5.000000000000e-01
0.000000000000e+00 2.500000000000e+00 -5.000000000000e-01
0.000000000000e+00 1.250000000000e+00 -5.000000000000e-01
4.285868399170e+00 7.141316008320e-01 -5.000000000000e-01
3.685357665270e+00 1.314642334730e+00 -5.000000000000e-01
3.180390356390e+00 1.819609643610e+00 -5.000000000000e-01
1.250000000000e+00 0.000000000000e+00 -5.000000000000e-01
2.500000000000e+00 0.000000000000e+00 -5.000000000000e-01
3.750000000000e+00 0.000000000000e+00 -5.000000000000e-01
4.285868399170e+00 4.285868399170e+00 -5.000000000000e-01
3.685357665270e+00 3.685357665270e+00 -5.000000000000e-01
3.180390356390e+00 3.180390356390e+00 -5.000000000000e-01
5.000000000000e+00 1.250000000000e+00 -5.000000000000e-01
5.000000000000e+00 2.500000000000e+00 -5.000000000000e-01
5.000000000000e+00 3.750000000000e+00 -5.000000000000e-01
3.750000000000e+00 5.000000000000e+00 -5.000000000000e-01
2.500000000000e+00 5.000000000000e+00 -5.000000000000e-01
1.250000000000e+00 5.000000000000e+00 -5.000000000000e-01
9.560744151940e-01 2.677827143250e+00 -5.000000000000e-01
6.659597640160e-01 1.438876720610e+00 -5.000000000000e-01
2.309219871940e+00 9.522638293400e-01 -5.000000000000e-01
3.458157207860e+00 6.354750772000e-01 -5.000000000000e-01
4.043925584810e+00 2.322172856750e+00 -5.000000000000e-01
4.334040235980e+00 3.561123279390e+00 -5.000000000000e-01
2.318530875810e+00 4.048536535600e+00 -5.000000000000e-01
3.552396921680e+00 4.370927842320e+00 -5.000000000000e-01
2.500000000000e+00 2.500000000000e+00 -5.000000000000e-01
0.000000000000e+00 0.000000000000e+00 -1.000000000000e+00
5.000000000000e+00 0.000000000000e+00 -1.000000000000e+00
5.000000000000e+00 5.000000000000e+00 -1.000000000000e+00
0.000000000000e+00 5.000000000000e+00 -1.000000000000e+00
2.244234909000e+00 2.244234909000e+00 -1.000000000000e+00
2.755765091000e+00 2.244234909000e+00 -1.000000000000e+00
2.755765091000e+00 2.755765091000e+00 -1.000000000000e+00
2.244234909000e+00 2.755765091000e+00 -1.000000000000e+00
7.141316008320e-01 7.141316008320e-01 -1.000000000000e+00
1.314642334730e+00 1.314642334730e+00 -1.000000000000e+00
1.819609643610e+00 1.819609643610e+00 -1.000000000000e+00
1.819609643610e+00 3.180390356390e+00 -1.000000000000e+00
1.314642334740e+00 3.685357665260e+00 -1.000000000000e+00
7.141316008360e-01 4.285868399160e+00 -1.000000000000e+00
0.000000000000e+00 3.750000000000e+00 -1.000000000000e+00
0.000000000000e+00 2.500000000000e+00 -1.000000000000e+00
0.000000000000e+00 1.250000000000e+00 -1.000000000000e+00
4.285868399170e+00 7.141316008320e-01 -1.000000000000e+00
3.685357665270e+00 1.314642334730e+00 -1.000000000000e+00
3.180390356390e+00 1.819609643610e+00 -1.000000000000e+00
1.250000000000e+00 0.000000000000e+00 -1.000000000000e+00
2.500000000000e+00 0.000000000000e+00 -1.000000000000e+00
3.750000000000e+00 0.000000000000e+00 -1.000000000000e+00
4.285868399170e+00 4.285868399170e+00 -1.000000000000e+00
3.685357665270e+00 3.685357665270e+00 -1.000000000000e+00
3.180390356390e+00 3.180390356390e+00 -1.000000000000e+00
5.000000000000e+00 1.250000000000e+00 -1.000000000000e+00
5.000000000000e+00 2.500000000000e+00 -1.000000000000e+00
5.000000000000e+00 3.750000000000e+00 -1.000000000000e+00
3.750000000000e+00 5.000000000000e+00 -1.000000000000e+00
2.500000000000e+00 5.000000000000e+00 -1.000000000000e+00
1.250000000000e+00 5.000000000000e+00 -1.000000000000e+00
9.560744151940e-01 2.677827143250e+00 -1.000000000000e+00
6.659597640160e-01 1.438876720610e+00 -1.000000000000e+00
2.309219871940e+00 9.522638293400e-01 -1.000000000000e+00
3.458157207860e+00 6.354750772000e-01 -1.000000000000e+00
4.043925584810e+00 2.322172856750e+00 -1.000000000000e+00
4.334040235980e+00 3.561123279390e+00 -1.000000000000e+00
2.318530875810e+00 4.048536535600e+00 -1.000000000000e+00
3.552396921680e+00 4.370927842320e+00 -1.000000000000e+00
2.500000000000e+00 2.500000000000e+00 -1.000000000000e+00
0.000000000000e+00 0.000000000000e+00 -3.000000000000e+00
5.000000000000e+00 0.000000000000e+00 -3.000000000000e+00
5.000000000000e+00 5.000000000000e+00 -3.000000000000e+00
0.000000000000e+00 5.000000000000e+00 -3.000000000000e+00
2.244234909000e+00 2.244234909000e+00 -3.000000000000e+00
2.755765091000e+00 2.244234909000e+00 -3.000000000000e+00
2.755765091000e+00 2.755765091000e+00 -3.000000000000e+00
2.244234909000e+00 2.755765091000e+00 -3.000000000000e+00
7.141316008320e-01 7.141316008320e-01 -3.000000000000e+00
1.314642334730e+00 1.314642334730e+00 -3.000000000000e+00
1.819609643610e+00 1.819609643610e+00 -3.000000000000e+00
1.819609643610e+00 3.180390356390e+00 -3.000000000000e+00
1.314642334740e+00 3.685357665260e+00 -3.000000000000e+00
7.141316008360e-01 4.285868399160e+00 -3.000000000000e+00
0.000000000000e+00 3.750000000000e+00 -3.000000000000e+00
0.000000000000e+00 2.500000000000e+00 -3.000000000000e+00
0.000000000000e+00 1.250000000000e+00 -3.000000000000e+00
4.285868399170e+00 7.141316008320e-01 -3.000000000000e+00
3.685357665270e+00 1.314642334730e+00 -3.000000000000e+00
3.180390356390e+00 1.819609643610e+00 -3.000000000000e+00
1.250000000000e+00 0.000000000000e+00 -3.000000000000e+00
2.500000000000e+00 0.000000000000e+00 -3.000000000000e+00
3.750000000000e+00 0.000000000000e+00 -3.000000000000e+00
4.285868399170e+00 4.285868399170e+00 -3.000000000000e+00
3.685357665270e+00 3.685357665270e+00 -3.000000000000e+00
3.180390356390e+00 3.180390356390e+00 -3.000000000000e+00
5.000000000000e+00 1.250000000000e+00 -3.000000000000e+00
5.000000000000e+00 2.500000000000e+00 -3.000000000000e+00
5.000000000000e+00 3.750000000000e+00 -3.000000000000e+00
3.750000000000e+00 5.000000000000e+00 -3.000000000000e+00
2.500000000000e+00 5.000000000000e+00 -3.000000000000e+00
1.250000000000e+00 5.000000000000e+00 -3.000000000000e+00
9.560744151940e-01 2.677827143250e+00 -3.000000000000e+00
6.659597640160e-01 1.438876720610e+00 -3.000000000000e+00
2.309219871940e+00 9.522638293400e-01 -3.000000000000e+00
3.458157207860e+00 6.354750772000e-01 -3.000000000000e+00
4.043925584810e+00 2.322172856750e+00 -3.000000000000e+00
4.334040235980e+00 3.561123279390e+00 -3.000000000000e+00
2.318530875810e+00 4.048536535600e+00 -3.000000000000e+00
3.552396921680e+00 4.370927842320e+00 -3.000000000000e+00
2.500000000000e+00 2.500000000000e+00 -3.000000000000e+00
0.000000000000e+00 0.000000000000e+00 -5.000000000000e+00
5.000000000000e+00 0.000000000000e+00 -5.000000000000e+00
5.000000000000e+00 5.000000000000e+00 -5.000000000000e+00
0.000000000000e+00 5.000000000000e+00 -5.000000000000e+00
2.244234909000e+00 2.244234909000e+00 -5.000000000000e+00
[...]
POINT_DATA 1394
SCALARS TEMPERATURE1 double 1
LOOKUP_TABLE default
1.000000000000e+01
1.000000000000e+01
1.000000000000e+01
1.000000000000e+01
1.000000000000e+01
1.000000000000e+01
1.000000000000e+01
1.000000000000e+01
1.000000000000e+01
1.000000000000e+01
1.000000000000e+01
1.000000000000e+01
1.000000000000e+01
1.000000000000e+01
1.000000000000e+01
1.000000000000e+01
1.000000000000e+01
1.000000000000e+01
1.000000000000e+01
1.000000000000e+01
1.000000000000e+01
1.000000000000e+01
1.000000000000e+01
1.000000000000e+01
1.000000000000e+01
1.000000000000e+01
1.000000000000e+01
1.000000000000e+01
1.000000000000e+01
1.000000000000e+01
1.000000000000e+01
1.000000000000e+01
1.000000000000e+01
1.000000000000e+01
1.000000000000e+01
1.000000000000e+01
1.000000000000e+01
1.000000000000e+01
1.000000000000e+01
1.000000000000e+01
1.000000000000e+01
1.577487002991e+01
1.577534036947e+01
1.577698505314e+01
1.577596894450e+01
1.439630559590e+01
1.438731702949e+01
1.437604115215e+01
1.440337500336e+01
1.570007984615e+01
1.549385637635e+01
1.502864307630e+01
1.501832874056e+01
1.550603318460e+01
1.569862778082e+01
1.570749797000e+01
1.562537721035e+01
1.569182281688e+01
1.570049525485e+01
1.549513666222e+01
1.503451561183e+01
1.570742328189e+01
1.562472880439e+01
1.569393660347e+01
1.570581200410e+01
1.548157677043e+01
1.504638250461e+01
1.570853526440e+01
1.562519530137e+01
1.569187249037e+01
1.569215128697e+01
1.562524929727e+01
1.570763066491e+01
1.551531117090e+01
1.563196776665e+01
1.551587218067e+01
1.562977325979e+01
1.551400768702e+01
1.562901760004e+01
1.551646262167e+01
1.563405984044e+01
1.129938049701e+01
2.102944745342e+01
2.103106716068e+01
2.103751939164e+01
2.102705889925e+01
2.698768105107e+01
2.685312105095e+01
2.660982259348e+01
2.721526202648e+01
2.093466776029e+01
2.065217853526e+01
2.132978253803e+01
2.130355949375e+01
2.063159774257e+01
2.094849730915e+01
2.096337460955e+01
2.080078523221e+01
2.090805141101e+01
2.093402583695e+01
2.064961750264e+01
2.128644543646e+01
2.096049613604e+01
2.080087759696e+01
2.091100332071e+01
2.091749589782e+01
2.067177874004e+01
2.131803874351e+01
2.096042224804e+01
2.079789406576e+01
2.090763289973e+01
2.090901556836e+01
2.079860706363e+01
2.096168473069e+01
2.043550595235e+01
2.081321165646e+01
2.044199835113e+01
2.080506901094e+01
2.044775079454e+01
2.080946644213e+01
2.044217882732e+01
2.081777475346e+01
4.441543582614e+01
2.364826684019e+01
2.364948280834e+01
2.364823460261e+01
2.365344317734e+01
2.972263974753e+01
2.961848525658e+01
2.943971627922e+01
2.988377197961e+01
2.352921299191e+01
2.330297438385e+01
2.430222839332e+01
2.429300108676e+01
2.327279261783e+01
2.354018402919e+01
2.355108585180e+01
2.336348269420e+01
2.350921916331e+01
2.352915558522e+01
2.329780748935e+01
2.425772696913e+01
2.354715235464e+01
2.336493321594e+01
2.351197017357e+01
2.351438926068e+01
2.332664143831e+01
2.426527706726e+01
2.354780622928e+01
2.336236056061e+01
2.350710513887e+01
2.350869768611e+01
2.336209193166e+01
2.355007063236e+01
2.301744315756e+01
2.339478544037e+01
2.302354512897e+01
2.338391477809e+01
2.302877206286e+01
2.339311595605e+01
2.302302202378e+01
2.340011123865e+01
4.476537231356e+01
2.521917095388e+01
2.522043816450e+01
2.522001553519e+01
2.522341899034e+01
3.062788525944e+01
3.052797713029e+01
3.035300575841e+01
3.078824058800e+01
2.510067509827e+01
2.486970911221e+01
2.570143211583e+01
2.568961226502e+01
2.484450471750e+01
2.511030631763e+01
2.511887415457e+01
2.493819398736e+01
2.507918035717e+01
2.510074830298e+01
2.486550263746e+01
2.566179263603e+01
2.511553324176e+01
2.493926506989e+01
2.508201729325e+01
2.508795351257e+01
2.488951564932e+01
2.567344182917e+01
2.511627715826e+01
2.493689953463e+01
2.507757181982e+01
2.507892347832e+01
2.493682222171e+01
2.511795694290e+01
2.461703978657e+01
2.497027445471e+01
2.462261849272e+01
2.496003968602e+01
2.462682292399e+01
2.496832053642e+01
2.462199629844e+01
2.497518859318e+01
4.472622768008e+01
2.601501665278e+01
2.601618645095e+01
2.601462559709e+01
2.601957955387e+01
3.128678419818e+01
3.119528007197e+01
3.103531104870e+01
3.143372382727e+01
2.591001917132e+01
2.573994260516e+01
2.661360383641e+01
2.660523220976e+01
2.571391110103e+01
2.591825364363e+01
2.592074874490e+01
2.576073237671e+01
2.588993762558e+01
2.591026376130e+01
2.573570273773e+01
2.657656982395e+01
2.591779395455e+01
2.576189212091e+01
2.589228238852e+01
2.589818106655e+01
2.576044228318e+01
2.658485883212e+01
2.591850378482e+01
2.575965732361e+01
2.588851087527e+01
2.588961742170e+01
2.575958426372e+01
2.592002575681e+01
2.549533629498e+01
2.579723117578e+01
2.550020054819e+01
2.578740049635e+01
2.550373675332e+01
2.579619208239e+01
2.549909140311e+01
2.580135631384e+01
4.452542728929e+01
2.630922494999e+01
2.631037284827e+01
2.630807908005e+01
2.631395651518e+01
3.147527251406e+01
3.138915082195e+01
3.123812521022e+01
3.161486193043e+01
2.621228714175e+01
2.608674793078e+01
2.698528313455e+01
2.697904397912e+01
2.606035841894e+01
2.621934384212e+01
2.621625568094e+01
2.606986385682e+01
2.619236469053e+01
2.621270668579e+01
2.608254294022e+01
2.695038513225e+01
2.621365364121e+01
2.607103793396e+01
2.619437412302e+01
2.620131261948e+01
2.610758065839e+01
2.695691457261e+01
2.621437009633e+01
2.606889471384e+01
2.619117364687e+01
2.619207322696e+01
2.606888536949e+01
2.621568967723e+01
2.584846824075e+01
2.611149803417e+01
2.585275246546e+01
2.610181173203e+01
2.585562344393e+01
2.611113336460e+01
2.585120967682e+01
2.611501152221e+01
4.417254009894e+01
2.634064353801e+01
2.634177778661e+01
2.634067291032e+01
2.634530267147e+01
3.124900377013e+01
3.115911257228e+01
3.100117130727e+01
3.139439026743e+01
2.622647447718e+01
2.601478347027e+01
2.678104410902e+01
2.677080589600e+01
2.599154779561e+01
2.623473077736e+01
2.624146238649e+01
2.607098733542e+01
2.620653885962e+01
2.622665940875e+01
2.601085913769e+01
2.674519720538e+01
2.623838083685e+01
2.607202427803e+01
2.620921588044e+01
2.621547719929e+01
2.603269202090e+01
2.675516565786e+01
2.623920907109e+01
2.606992554129e+01
2.620499664918e+01
2.620619232078e+01
2.606979712537e+01
2.624073075796e+01
2.577981821734e+01
2.610373396808e+01
2.578483231140e+01
2.609399678206e+01
2.578833958951e+01
2.610206387827e+01
2.578409411967e+01
2.610830871989e+01
4.402578157045e+01
2.655408465497e+01
2.655510359824e+01
2.655346668312e+01
2.655860077538e+01
3.093000419586e+01
3.085109520060e+01
3.071071206319e+01
3.106116539624e+01
2.645325288245e+01
2.628897425834e+01
2.699326985822e+01
2.698490393145e+01
2.626788202457e+01
2.645972181583e+01
2.646147627901e+01
2.631365707184e+01
2.643481462702e+01
2.645359903042e+01
2.628548489007e+01
2.696248361057e+01
2.645895271461e+01
2.631459536465e+01
2.643707562908e+01
2.644415275056e+01
2.630518044456e+01
2.697123244001e+01
2.645978196452e+01
2.631277879472e+01
2.643359745974e+01
2.643451235302e+01
2.631270678979e+01
2.646096661547e+01
2.608009317169e+01
2.634830357145e+01
2.608419433546e+01
2.633942983476e+01
2.608669941651e+01
2.634724308796e+01
2.608312950262e+01
2.635206346041e+01
4.227640754473e+01
2.670801679242e+01
2.670894609857e+01
2.670736788082e+01
2.671235538869e+01
3.061762793938e+01
3.054550272822e+01
3.041572352790e+01
3.074018546535e+01
2.661156968059e+01
2.645263088507e+01
2.706912377012e+01
2.706080790145e+01
2.643410367790e+01
2.661721588227e+01
2.661886254845e+01
2.647971783901e+01
2.659430483722e+01
2.661193968022e+01
2.644953715468e+01
2.704159127326e+01
2.661657394520e+01
2.648054303130e+01
2.659647929244e+01
2.660375250893e+01
2.646667236491e+01
2.705050916646e+01
2.661742519468e+01
2.647893844397e+01
2.659319473418e+01
2.659401529273e+01
2.647886446988e+01
2.661844635531e+01
2.626364654653e+01
2.651235716131e+01
2.626735003386e+01
2.650412313373e+01
2.626939736257e+01
2.651129488623e+01
2.626634298737e+01
2.651588742483e+01
4.095428408289e+01
2.677010813351e+01
2.677100692852e+01
2.676969192539e+01
2.677429993037e+01
3.027726518354e+01
3.020973327742e+01
3.008702436028e+01
3.039405390442e+01
2.667246718932e+01
2.650203610612e+01
2.702961308634e+01
2.702067497545e+01
2.648601257729e+01
2.667761776928e+01
2.668032450058e+01
2.654198423219e+01
2.665561540906e+01
2.667284693331e+01
2.649928033599e+01
2.700440935344e+01
2.667816269655e+01
2.654269240208e+01
2.665786207358e+01
2.666572073549e+01
2.651386805417e+01
2.701398849015e+01
2.667906940486e+01
2.654124356315e+01
2.665455470229e+01
2.665535334704e+01
2.654116788383e+01
2.667995144422e+01
2.632776210857e+01
2.657276258201e+01
2.633128580373e+01
2.656487956974e+01
2.633303259432e+01
2.657147658992e+01
2.633042718821e+01
2.657630466075e+01
3.985217289617e+01
2.681459528570e+01
2.681547508377e+01
2.681443386219e+01
2.681865003996e+01
2.999913898495e+01
2.993500921358e+01
2.981753514052e+01
3.011160677703e+01
2.671527352847e+01
2.653221501067e+01
2.698528619953e+01
2.697569475658e+01
2.651826837014e+01
2.672009702332e+01
2.672400804743e+01
2.658521906535e+01
2.669869279589e+01
2.671565110083e+01
2.652973362896e+01
2.696183322135e+01
2.672192818281e+01
2.658582845156e+01
2.670102445287e+01
2.670934835675e+01
2.654221182442e+01
2.697206177924e+01
2.672288034739e+01
2.658449825921e+01
2.669766032159e+01
2.669845517743e+01
2.658441993869e+01
2.672365802725e+01
2.636945529163e+01
2.661422533955e+01
2.637287425530e+01
2.660660763905e+01
2.637441942916e+01
2.661270769738e+01
2.637216591648e+01
2.661781962499e+01
3.898541206290e+01
2.684269288138e+01
2.684356554149e+01
2.684277278636e+01
2.684663773194e+01
2.978494662816e+01
2.972316785758e+01
2.960933596298e+01
2.989434281022e+01
2.674138007032e+01
2.654617148441e+01
2.694106651340e+01
2.693087745318e+01
2.653383290225e+01
2.674600232376e+01
2.675103603423e+01
2.661089142882e+01
2.672491640323e+01
2.674175160189e+01
2.654389678793e+01
2.691883943660e+01
2.674900385952e+01
2.661142258364e+01
2.672733505414e+01
2.673605505707e+01
2.655473934249e+01
2.692963119040e+01
2.674999358142e+01
2.661017612866e+01
2.672389828624e+01
2.672470054674e+01
2.661009629280e+01
2.675069528363e+01
2.639170666653e+01
2.663847852502e+01
2.639507656801e+01
2.663103341696e+01
2.639649379520e+01
2.663674807127e+01
2.639450132517e+01
2.664214592124e+01
3.834504774215e+01
2.685034764875e+01
2.685122557197e+01
2.685067762166e+01
2.685420608364e+01
2.962341688118e+01
2.956289522292e+01
2.945100705826e+01
2.973110215427e+01
2.674642087945e+01
2.653808139087e+01
2.688823001462e+01
2.687742199962e+01
2.652695556015e+01
2.675097958178e+01
2.675720093730e+01
2.661439419059e+01
2.672991017241e+01
2.674677998776e+01
2.653595377034e+01
2.686671189694e+01
2.675517734429e+01
2.661486419632e+01
2.673242964642e+01
2.674148648953e+01
2.654555909213e+01
2.687805556941e+01
2.675619971999e+01
2.661366832503e+01
2.672888865475e+01
2.672971357382e+01
2.661358673755e+01
2.675685372600e+01
2.638886819249e+01
2.664078935252e+01
2.639225395122e+01
2.663342396020e+01
2.639362102047e+01
2.663884240226e+01
2.639180656390e+01
2.664456695220e+01
3.791690617998e+01
2.680869476435e+01
2.680960462255e+01
2.680939647410e+01
2.681249467808e+01
2.946817724334e+01
2.940741097415e+01
2.929501988597e+01
2.957616258129e+01
2.669935652088e+01
2.646913436787e+01
2.677779328252e+01
2.676599906524e+01
2.645907202132e+01
2.670406727798e+01
2.671217575815e+01
2.656256429278e+01
2.668244140350e+01
2.669968982010e+01
2.646711030878e+01
2.675636032308e+01
2.671008913748e+01
2.656297768363e+01
2.668514399311e+01
2.669463022242e+01
2.647560872968e+01
2.676853985001e+01
2.671115827346e+01
2.656179678971e+01
2.668137722038e+01
2.668226551057e+01
2.656170957824e+01
2.671179296026e+01
2.632179536411e+01
2.658772682811e+01
2.632532644194e+01
2.658028624027e+01
2.632675188539e+01
2.658544873471e+01
2.632505428463e+01
2.659174783962e+01
3.767492869302e+01
2.662559254792e+01
2.662659996926e+01
2.662707732162e+01
2.662944032934e+01
2.920736246234e+01
2.914330502110e+01
2.902530178358e+01
2.931986911411e+01
2.650112305999e+01
2.621598963446e+01
2.646301121620e+01
2.644889382774e+01
2.620735637706e+01
2.650650872542e+01
2.651933385324e+01
2.634946023313e+01
2.648292907400e+01
2.650138861610e+01
2.621403066437e+01
2.644044929938e+01
2.651697716443e+01
2.634980274345e+01
2.648611070238e+01
2.649640294450e+01
2.622095726249e+01
2.645449211283e+01
2.651816501833e+01
2.634858436594e+01
2.648168699798e+01
2.648276950373e+01
2.634846367386e+01
2.651884148478e+01
2.606439056559e+01
2.637246444720e+01
2.606842708025e+01
2.636456511142e+01
2.607016478410e+01
2.636940518466e+01
2.606854482044e+01
2.637718661184e+01
3.762851199265e+01
2.656360266029e+01
2.656464456853e+01
2.656532342987e+01
2.656746771462e+01
2.911712410385e+01
2.905210542255e+01
2.893236327904e+01
2.923113253531e+01
2.643436342466e+01
2.613291655167e+01
2.636045088833e+01
2.634561524042e+01
2.612474915062e+01
2.643991615369e+01
2.645400407351e+01
2.627790707937e+01
2.641569963428e+01
2.643461726048e+01
2.613098365631e+01
2.633760968380e+01
2.645157768839e+01
2.627822450715e+01
2.641902780360e+01
2.642968845328e+01
2.613739476135e+01
2.635226039391e+01
2.645280721358e+01
2.627699637824e+01
2.641441388794e+01
2.641555026795e+01
2.627687025336e+01
2.645348286885e+01
2.598016175415e+01
2.630051828913e+01
2.598433879964e+01
2.629246486428e+01
2.598614119251e+01
2.629722906739e+01
2.598456093383e+01
2.630544490456e+01
3.760040208724e+01
2.651850607354e+01
2.651960389685e+01
2.652059867252e+01
2.652241073998e+01
2.903634664248e+01
2.896979954094e+01
2.884754963725e+01
2.915228566304e+01
2.638169948278e+01
2.605482860185e+01
2.625457996003e+01
2.623869719891e+01
2.604731517225e+01
2.638753528074e+01
2.640356589246e+01
2.621752540700e+01
2.636226637763e+01
2.638193280460e+01
2.605292089014e+01
2.623122216320e+01
2.640101945900e+01
2.621780304451e+01
2.636582160612e+01
2.637707009776e+01
2.605860574076e+01
2.624670724395e+01
2.640231118665e+01
2.621655552691e+01
2.636091292117e+01
2.636213702454e+01
2.621642563234e+01
2.640299651121e+01
2.589969900771e+01
2.623962395092e+01
2.590410380968e+01
2.623130684533e+01
2.590602598102e+01
2.623598030316e+01
2.590449492011e+01
2.624487658339e+01
3.760480037555e+01
2.660821177364e+01
2.660933598728e+01
2.661076110125e+01
2.661242616331e+01
2.898015053383e+01
2.891189126699e+01
2.878589477932e+01
2.909981852862e+01
2.645730277756e+01
2.608195569618e+01
2.621373426441e+01
2.619581940494e+01
2.607610819562e+01
2.646351411162e+01
2.648364440643e+01
2.627977057541e+01
2.643701144238e+01
2.645749015548e+01
2.608014989619e+01
2.618998597244e+01
2.648083224335e+01
2.627996194505e+01
2.644098456696e+01
2.645305979541e+01
2.608401980085e+01
2.620721501717e+01
2.648227032926e+01
2.627875875770e+01
2.643549782249e+01
2.643687098671e+01
2.627859455287e+01
2.648303473245e+01
2.592538309027e+01
2.630016652939e+01
2.593012575144e+01
2.629145922923e+01
2.593217180236e+01
2.629587348528e+01
2.593086229393e+01
2.630606040395e+01
3.764073883044e+01
2.707788148950e+01
2.707885562933e+01
2.708077770204e+01
2.708209041796e+01
2.938756555408e+01
2.931749003630e+01
2.919128825475e+01
2.950437635869e+01
2.692535511468e+01
2.651756847582e+01
2.660606788160e+01
2.658704595160e+01
2.651258593254e+01
2.693250976924e+01
2.695848206980e+01
2.674996646918e+01
2.690650914762e+01
2.692529285726e+01
2.651585443438e+01
2.658135494907e+01
2.695528274304e+01
2.675009380177e+01
2.691066025010e+01
2.692054727684e+01
2.651906160783e+01
2.659919474489e+01
2.695664913950e+01
2.674892064425e+01
2.690477968382e+01
2.690628197146e+01
2.674868358108e+01
2.695776434611e+01
2.636335842134e+01
2.676274334798e+01
2.636849762085e+01
2.675437574794e+01
2.637121641389e+01
2.675791181160e+01
2.636975879187e+01
2.676907574930e+01
3.785749947834e+01
2.803325766279e+01
2.803388849420e+01
2.803521937567e+01
2.803538958417e+01
2.983185802445e+01
2.977868817508e+01
2.966911899039e+01
2.994629138314e+01
2.794438043205e+01
2.771571423526e+01
2.780007405512e+01
2.778477933577e+01
2.771222194381e+01
2.794857469405e+01
2.796100121929e+01
2.783950734687e+01
2.793167641955e+01
2.794449400875e+01
2.771481182660e+01
2.778504721047e+01
2.795934206412e+01
2.783958490196e+01
2.793407732730e+01
2.794122529510e+01
2.771743092544e+01
2.780278783665e+01
2.796025967756e+01
2.783886191338e+01
2.793085931529e+01
2.793166912724e+01
2.783879537206e+01
2.796070025903e+01
2.762178013610e+01
2.785046282756e+01
2.762451465880e+01
2.784533704035e+01
2.762541817935e+01
2.784783765282e+01
2.762472092221e+01
2.785403567059e+01
3.727307644855e+01
2.830823203608e+01
2.830876947795e+01
2.830873159551e+01
2.831061274237e+01
2.823498542886e+01
2.822978553425e+01
2.823953630329e+01
2.820793480201e+01
2.823821648981e+01
2.807471204021e+01
2.801751021105e+01
2.801657976115e+01
2.807515355863e+01
2.823918566371e+01
2.824667327191e+01
2.815886171335e+01
2.823004111382e+01
2.823836981641e+01
2.807414390430e+01
2.801171337677e+01
2.824565757878e+01
2.815881991588e+01
2.823182574318e+01
2.823894454407e+01
2.807226833188e+01
2.800809778030e+01
2.824629071494e+01
2.815848833378e+01
2.822943813624e+01
2.822992918162e+01
2.815841644641e+01
2.824639286442e+01
2.802566587093e+01
2.817012803099e+01
2.802760153011e+01
2.816649752380e+01
2.802841616264e+01
2.816815214574e+01
2.802830688102e+01
2.817246618927e+01
2.701414425012e+01
2.857689764341e+01
2.857726176945e+01
2.857696313293e+01
2.857870131970e+01
2.821887182353e+01
2.821998566003e+01
2.822024515135e+01
2.821939805726e+01
2.852727445331e+01
2.842104350804e+01
2.831134666121e+01
2.830889259831e+01
2.842369163401e+01
2.852667844417e+01
2.852984941541e+01
2.847203546810e+01
2.852178330499e+01
2.852761068988e+01
2.842095006096e+01
2.831070892559e+01
2.852952082276e+01
2.847200467467e+01
2.852297799510e+01
2.852949250419e+01
2.841704343792e+01
2.831145096262e+01
2.853018448490e+01
2.847202072323e+01
2.852142692688e+01
2.852169102098e+01
2.847192033007e+01
2.852989154771e+01
2.840113421167e+01
2.848231865415e+01
2.840182172823e+01
2.847998537198e+01
2.840126631579e+01
2.848116476400e+01
2.840200142729e+01
2.848380295183e+01
2.844394970492e+01
2.882873669289e+01
2.882905788219e+01
2.882909075564e+01
2.882949596238e+01
2.865446359466e+01
2.865277122868e+01
2.864886663216e+01
2.865855771154e+01
2.879807548859e+01
2.873575374677e+01
2.866859019943e+01
2.866652044142e+01
2.873743749170e+01
2.879761918163e+01
2.879817851800e+01
2.876277631549e+01
2.879369396747e+01
2.879834004908e+01
2.873576159341e+01
2.866830899967e+01
2.879813405556e+01
2.876272996884e+01
2.879444154264e+01
2.879943679212e+01
2.873332067208e+01
2.866982641351e+01
2.879854835145e+01
2.876268719556e+01
2.879360628001e+01
2.879373631325e+01
2.876268360755e+01
2.879819072738e+01
2.872402523622e+01
2.877084788288e+01
2.872441871956e+01
2.876932814017e+01
2.872391832608e+01
2.877012932252e+01
2.872438852072e+01
2.877163352269e+01
2.860286321286e+01
2.905634716373e+01
2.905660183974e+01
2.905667100357e+01
2.905659477398e+01
2.896776812990e+01
2.896734463149e+01
2.896667057578e+01
2.896808509423e+01
2.903916168755e+01
2.900748954384e+01
2.897776144771e+01
2.897690696271e+01
2.900824326034e+01
2.903883850319e+01
2.903829760754e+01
2.901848596906e+01
2.903621138538e+01
2.903934594295e+01
2.900746981951e+01
2.897752830453e+01
2.903836574979e+01
2.901847658328e+01
2.903662580739e+01
2.903988076034e+01
2.900624447723e+01
2.897789146125e+01
2.903858728053e+01
2.901840061504e+01
2.903620001109e+01
2.903626728383e+01
2.901841400212e+01
2.903827968346e+01
2.899984242634e+01
2.902421070439e+01
2.900008004912e+01
2.902328568669e+01
2.899978733918e+01
2.902383646184e+01
2.900000154709e+01
2.902457671133e+01
2.896948918034e+01
2.968124490248e+01
2.968128346535e+01
2.968128414770e+01
2.968115218998e+01
2.968267352239e+01
2.968268499031e+01
2.968265449749e+01
2.968272987084e+01
2.968100222519e+01
2.968136565010e+01
2.968211500202e+01
2.968210390470e+01
2.968133753133e+01
2.968094706025e+01
2.968070064522e+01
2.968045553946e+01
2.968081113487e+01
2.968102646184e+01
2.968136852906e+01
2.968212662886e+01
2.968076109578e+01
2.968047783741e+01
2.968082797929e+01
2.968099443280e+01