# vtk DataFile Version 3.0
Unstructured Grid from OpenGeoSys
ASCII
DATASET UNSTRUCTURED_GRID
FIELD TimesAndCycles 2
TIME 1 1 double
3.600000000000e+03
CYLCE 1 1 long
1
POINTS 1394 double
0.000000000000e+00 0.000000000000e+00 0.000000000000e+00
5.000000000000e+00 0.000000000000e+00 0.000000000000e+00
5.000000000000e+00 5.000000000000e+00 0.000000000000e+00
0.000000000000e+00 5.000000000000e+00 0.000000000000e+00
2.244234909000e+00 2.244234909000e+00 0.000000000000e+00
2.755765091000e+00 2.244234909000e+00 0.000000000000e+00
2.755765091000e+00 2.755765091000e+00 0.000000000000e+00
2.244234909000e+00 2.755765091000e+00 0.000000000000e+00
7.141316008320e-01 7.141316008320e-01 0.000000000000e+00
1.314642334730e+00 1.314642334730e+00 0.000000000000e+00
1.819609643610e+00 1.819609643610e+00 0.000000000000e+00
1.819609643610e+00 3.180390356390e+00 0.000000000000e+00
1.314642334740e+00 3.685357665260e+00 0.000000000000e+00
7.141316008360e-01 4.285868399160e+00 0.000000000000e+00
0.000000000000e+00 3.750000000000e+00 0.000000000000e+00
0.000000000000e+00 2.500000000000e+00 0.000000000000e+00
0.000000000000e+00 1.250000000000e+00 0.000000000000e+00
4.285868399170e+00 7.141316008320e-01 0.000000000000e+00
3.685357665270e+00 1.314642334730e+00 0.000000000000e+00
3.180390356390e+00 1.819609643610e+00 0.000000000000e+00
1.250000000000e+00 0.000000000000e+00 0.000000000000e+00
2.500000000000e+00 0.000000000000e+00 0.000000000000e+00
3.750000000000e+00 0.000000000000e+00 0.000000000000e+00
4.285868399170e+00 4.285868399170e+00 0.000000000000e+00
3.685357665270e+00 3.685357665270e+00 0.000000000000e+00
3.180390356390e+00 3.180390356390e+00 0.000000000000e+00
5.000000000000e+00 1.250000000000e+00 0.000000000000e+00
5.000000000000e+00 2.500000000000e+00 0.000000000000e+00
5.000000000000e+00 3.750000000000e+00 0.000000000000e+00
3.750000000000e+00 5.000000000000e+00 0.000000000000e+00
2.500000000000e+00 5.000000000000e+00 0.000000000000e+00
1.250000000000e+00 5.000000000000e+00 0.000000000000e+00
9.560744151940e-01 2.677827143250e+00 0.000000000000e+00
6.659597640160e-01 1.438876720610e+00 0.000000000000e+00
2.309219871940e+00 9.522638293400e-01 0.000000000000e+00
3.458157207860e+00 6.354750772000e-01 0.000000000000e+00
4.043925584810e+00 2.322172856750e+00 0.000000000000e+00
4.334040235980e+00 3.561123279390e+00 0.000000000000e+00
2.318530875810e+00 4.048536535600e+00 0.000000000000e+00
3.552396921680e+00 4.370927842320e+00 0.000000000000e+00
2.500000000000e+00 2.500000000000e+00 0.000000000000e+00
0.000000000000e+00 0.000000000000e+00 -5.000000000000e-01
5.000000000000e+00 0.000000000000e+00 -5.000000000000e-01
5.000000000000e+00 5.000000000000e+00 -5.000000000000e-01
0.000000000000e+00 5.000000000000e+00 -5.000000000000e-01
2.244234909000e+00 2.244234909000e+00 -5.000000000000e-01
2.755765091000e+00 2.244234909000e+00 -5.000000000000e-01
2.755765091000e+00 2.755765091000e+00 -5.000000000000e-01
2.244234909000e+00 2.755765091000e+00 -5.000000000000e-01
7.141316008320e-01 7.141316008320e-01 -5.000000000000e-01
1.314642334730e+00 1.314642334730e+00 -5.000000000000e-01
1.819609643610e+00 1.819609643610e+00 -5.000000000000e-01
1.819609643610e+00 3.180390356390e+00 -5.000000000000e-01
1.314642334740e+00 3.685357665260e+00 -5.000000000000e-01
7.141316008360e-01 4.285868399160e+00 -5.000000000000e-01
0.000000000000e+00 3.750000000000e+00 -5.000000000000e-01
0.000000000000e+00 2.500000000000e+00 -5.000000000000e-01
0.000000000000e+00 1.250000000000e+00 -5.000000000000e-01
4.285868399170e+00 7.141316008320e-01 -5.000000000000e-01
3.685357665270e+00 1.314642334730e+00 -5.000000000000e-01
3.180390356390e+00 1.819609643610e+00 -5.000000000000e-01
1.250000000000e+00 0.000000000000e+00 -5.000000000000e-01
2.500000000000e+00 0.000000000000e+00 -5.000000000000e-01
3.750000000000e+00 0.000000000000e+00 -5.000000000000e-01
4.285868399170e+00 4.285868399170e+00 -5.000000000000e-01
3.685357665270e+00 3.685357665270e+00 -5.000000000000e-01
3.180390356390e+00 3.180390356390e+00 -5.000000000000e-01
5.000000000000e+00 1.250000000000e+00 -5.000000000000e-01
5.000000000000e+00 2.500000000000e+00 -5.000000000000e-01
5.000000000000e+00 3.750000000000e+00 -5.000000000000e-01
3.750000000000e+00 5.000000000000e+00 -5.000000000000e-01
2.500000000000e+00 5.000000000000e+00 -5.000000000000e-01
1.250000000000e+00 5.000000000000e+00 -5.000000000000e-01
9.560744151940e-01 2.677827143250e+00 -5.000000000000e-01
6.659597640160e-01 1.438876720610e+00 -5.000000000000e-01
2.309219871940e+00 9.522638293400e-01 -5.000000000000e-01
3.458157207860e+00 6.354750772000e-01 -5.000000000000e-01
4.043925584810e+00 2.322172856750e+00 -5.000000000000e-01
4.334040235980e+00 3.561123279390e+00 -5.000000000000e-01
2.318530875810e+00 4.048536535600e+00 -5.000000000000e-01
3.552396921680e+00 4.370927842320e+00 -5.000000000000e-01
2.500000000000e+00 2.500000000000e+00 -5.000000000000e-01
0.000000000000e+00 0.000000000000e+00 -1.000000000000e+00
5.000000000000e+00 0.000000000000e+00 -1.000000000000e+00
5.000000000000e+00 5.000000000000e+00 -1.000000000000e+00
0.000000000000e+00 5.000000000000e+00 -1.000000000000e+00
2.244234909000e+00 2.244234909000e+00 -1.000000000000e+00
2.755765091000e+00 2.244234909000e+00 -1.000000000000e+00
2.755765091000e+00 2.755765091000e+00 -1.000000000000e+00
2.244234909000e+00 2.755765091000e+00 -1.000000000000e+00
7.141316008320e-01 7.141316008320e-01 -1.000000000000e+00
1.314642334730e+00 1.314642334730e+00 -1.000000000000e+00
1.819609643610e+00 1.819609643610e+00 -1.000000000000e+00
1.819609643610e+00 3.180390356390e+00 -1.000000000000e+00
1.314642334740e+00 3.685357665260e+00 -1.000000000000e+00
7.141316008360e-01 4.285868399160e+00 -1.000000000000e+00
0.000000000000e+00 3.750000000000e+00 -1.000000000000e+00
0.000000000000e+00 2.500000000000e+00 -1.000000000000e+00
0.000000000000e+00 1.250000000000e+00 -1.000000000000e+00
4.285868399170e+00 7.141316008320e-01 -1.000000000000e+00
3.685357665270e+00 1.314642334730e+00 -1.000000000000e+00
3.180390356390e+00 1.819609643610e+00 -1.000000000000e+00
1.250000000000e+00 0.000000000000e+00 -1.000000000000e+00
2.500000000000e+00 0.000000000000e+00 -1.000000000000e+00
3.750000000000e+00 0.000000000000e+00 -1.000000000000e+00
4.285868399170e+00 4.285868399170e+00 -1.000000000000e+00
3.685357665270e+00 3.685357665270e+00 -1.000000000000e+00
3.180390356390e+00 3.180390356390e+00 -1.000000000000e+00
5.000000000000e+00 1.250000000000e+00 -1.000000000000e+00
5.000000000000e+00 2.500000000000e+00 -1.000000000000e+00
5.000000000000e+00 3.750000000000e+00 -1.000000000000e+00
3.750000000000e+00 5.000000000000e+00 -1.000000000000e+00
2.500000000000e+00 5.000000000000e+00 -1.000000000000e+00
1.250000000000e+00 5.000000000000e+00 -1.000000000000e+00
9.560744151940e-01 2.677827143250e+00 -1.000000000000e+00
6.659597640160e-01 1.438876720610e+00 -1.000000000000e+00
2.309219871940e+00 9.522638293400e-01 -1.000000000000e+00
3.458157207860e+00 6.354750772000e-01 -1.000000000000e+00
4.043925584810e+00 2.322172856750e+00 -1.000000000000e+00
4.334040235980e+00 3.561123279390e+00 -1.000000000000e+00
2.318530875810e+00 4.048536535600e+00 -1.000000000000e+00
3.552396921680e+00 4.370927842320e+00 -1.000000000000e+00
2.500000000000e+00 2.500000000000e+00 -1.000000000000e+00
0.000000000000e+00 0.000000000000e+00 -3.000000000000e+00
5.000000000000e+00 0.000000000000e+00 -3.000000000000e+00
5.000000000000e+00 5.000000000000e+00 -3.000000000000e+00
0.000000000000e+00 5.000000000000e+00 -3.000000000000e+00
2.244234909000e+00 2.244234909000e+00 -3.000000000000e+00
2.755765091000e+00 2.244234909000e+00 -3.000000000000e+00
2.755765091000e+00 2.755765091000e+00 -3.000000000000e+00
2.244234909000e+00 2.755765091000e+00 -3.000000000000e+00
7.141316008320e-01 7.141316008320e-01 -3.000000000000e+00
1.314642334730e+00 1.314642334730e+00 -3.000000000000e+00
1.819609643610e+00 1.819609643610e+00 -3.000000000000e+00
1.819609643610e+00 3.180390356390e+00 -3.000000000000e+00
1.314642334740e+00 3.685357665260e+00 -3.000000000000e+00
7.141316008360e-01 4.285868399160e+00 -3.000000000000e+00
0.000000000000e+00 3.750000000000e+00 -3.000000000000e+00
0.000000000000e+00 2.500000000000e+00 -3.000000000000e+00
0.000000000000e+00 1.250000000000e+00 -3.000000000000e+00
4.285868399170e+00 7.141316008320e-01 -3.000000000000e+00
3.685357665270e+00 1.314642334730e+00 -3.000000000000e+00
3.180390356390e+00 1.819609643610e+00 -3.000000000000e+00
1.250000000000e+00 0.000000000000e+00 -3.000000000000e+00
2.500000000000e+00 0.000000000000e+00 -3.000000000000e+00
3.750000000000e+00 0.000000000000e+00 -3.000000000000e+00
4.285868399170e+00 4.285868399170e+00 -3.000000000000e+00
3.685357665270e+00 3.685357665270e+00 -3.000000000000e+00
3.180390356390e+00 3.180390356390e+00 -3.000000000000e+00
5.000000000000e+00 1.250000000000e+00 -3.000000000000e+00
5.000000000000e+00 2.500000000000e+00 -3.000000000000e+00
5.000000000000e+00 3.750000000000e+00 -3.000000000000e+00
3.750000000000e+00 5.000000000000e+00 -3.000000000000e+00
2.500000000000e+00 5.000000000000e+00 -3.000000000000e+00
1.250000000000e+00 5.000000000000e+00 -3.000000000000e+00
9.560744151940e-01 2.677827143250e+00 -3.000000000000e+00
6.659597640160e-01 1.438876720610e+00 -3.000000000000e+00
2.309219871940e+00 9.522638293400e-01 -3.000000000000e+00
3.458157207860e+00 6.354750772000e-01 -3.000000000000e+00
4.043925584810e+00 2.322172856750e+00 -3.000000000000e+00
4.334040235980e+00 3.561123279390e+00 -3.000000000000e+00
2.318530875810e+00 4.048536535600e+00 -3.000000000000e+00
3.552396921680e+00 4.370927842320e+00 -3.000000000000e+00
2.500000000000e+00 2.500000000000e+00 -3.000000000000e+00
0.000000000000e+00 0.000000000000e+00 -5.000000000000e+00
5.000000000000e+00 0.000000000000e+00 -5.000000000000e+00
5.000000000000e+00 5.000000000000e+00 -5.000000000000e+00
0.000000000000e+00 5.000000000000e+00 -5.000000000000e+00
2.244234909000e+00 2.244234909000e+00 -5.000000000000e+00
[...]
POINT_DATA 1394
SCALARS TEMPERATURE1 double 1
LOOKUP_TABLE default
1.000000000000e+01
1.000000000000e+01
1.000000000000e+01
1.000000000000e+01
1.000000000000e+01
1.000000000000e+01
1.000000000000e+01
1.000000000000e+01
1.000000000000e+01
1.000000000000e+01
1.000000000000e+01
1.000000000000e+01
1.000000000000e+01
1.000000000000e+01
1.000000000000e+01
1.000000000000e+01
1.000000000000e+01
1.000000000000e+01
1.000000000000e+01
1.000000000000e+01
1.000000000000e+01
1.000000000000e+01
1.000000000000e+01
1.000000000000e+01
1.000000000000e+01
1.000000000000e+01
1.000000000000e+01
1.000000000000e+01
1.000000000000e+01
1.000000000000e+01
1.000000000000e+01
1.000000000000e+01
1.000000000000e+01
1.000000000000e+01
1.000000000000e+01
1.000000000000e+01
1.000000000000e+01
1.000000000000e+01
1.000000000000e+01
1.000000000000e+01
1.000000000000e+01
1.645231030296e+01
1.645253677759e+01
1.644538195479e+01
1.644743765087e+01
2.022475416848e+01
2.025198269572e+01
2.034552659788e+01
2.010370901512e+01
1.667643059296e+01
1.749701552595e+01
1.904754140310e+01
1.909230251649e+01
1.745725867140e+01
1.667338877443e+01
1.660195972161e+01
1.687147945386e+01
1.668594626872e+01
1.667699374329e+01
1.749303795415e+01
1.904099559889e+01
1.660544976576e+01
1.687335322099e+01
1.667889246128e+01
1.666489742892e+01
1.753524876168e+01
1.899368700675e+01
1.660249641092e+01
1.687156911514e+01
1.668831206802e+01
1.668634837642e+01
1.687238346540e+01
1.660192315768e+01
1.743503623278e+01
1.691179941276e+01
1.743119453277e+01
1.691548780208e+01
1.743221851335e+01
1.692306946994e+01
1.742587269306e+01
1.690167797638e+01
1.837754070380e+01
2.328213203097e+01
2.328132620182e+01
2.326759593771e+01
2.326968328902e+01
3.460427294003e+01
3.457124140769e+01
3.450917353624e+01
3.468197525307e+01
2.381729377526e+01
2.560163182438e+01
2.907478024640e+01
2.913866518895e+01
2.551278591627e+01
2.381579667548e+01
2.367795301352e+01
2.430557783291e+01
2.384847698163e+01
2.381796038896e+01
2.559376740694e+01
2.905410802732e+01
2.368493472988e+01
2.431008777443e+01
2.383260758063e+01
2.378530320539e+01
2.569036209944e+01
2.900658769888e+01
2.367867933318e+01
2.430660919262e+01
2.385293195448e+01
2.384884845980e+01
2.430772192815e+01
2.367853590402e+01
2.547422289036e+01
2.435514626440e+01
2.546488967326e+01
2.436669022126e+01
2.546588659260e+01
2.437969788623e+01
2.545211921518e+01
2.433366242996e+01
4.826984125985e+01
2.683195916887e+01
2.683025343588e+01
2.681643597400e+01
2.681692540649e+01
3.776922117735e+01
3.774939037508e+01
3.772133886932e+01
3.780625538138e+01
2.744991599587e+01
2.936937589786e+01
3.283762936438e+01
3.290682439750e+01
2.928053341909e+01
2.744877869194e+01
2.731518837483e+01
2.804158673298e+01
2.749556598691e+01
2.744982569000e+01
2.936225032766e+01
3.282177444117e+01
2.732263364609e+01
2.804624266850e+01
2.747805249589e+01
2.741567899632e+01
2.946032450674e+01
3.276935057672e+01
2.731533624651e+01
2.804303814304e+01
2.750003765472e+01
2.749554275840e+01
2.804383941845e+01
2.731569027468e+01
2.930405561566e+01
2.806028730161e+01
2.929382219168e+01
2.807712695948e+01
2.929605200694e+01
2.808589442232e+01
2.928141192643e+01
2.803660404944e+01
4.899187755461e+01
2.844488892578e+01
2.844308152113e+01
2.843025442008e+01
2.843079621915e+01
3.859265715614e+01
3.857338795855e+01
3.854276385260e+01
3.863392999979e+01
2.902722825622e+01
3.080965297314e+01
3.400981699196e+01
3.407307543911e+01
3.072757067818e+01
2.902655785988e+01
2.890602766909e+01
2.958965066448e+01
2.907231333392e+01
2.902697728794e+01
3.080318543910e+01
3.399527010197e+01
2.891283015922e+01
2.959402190160e+01
2.905596104449e+01
2.899494964651e+01
3.089402354531e+01
3.394804326404e+01
2.890596552557e+01
2.959112892716e+01
2.907628582076e+01
2.907211236986e+01
2.959172691792e+01
2.890649902596e+01
3.075710343751e+01
2.959961813110e+01
3.074760834825e+01
2.961606699056e+01
3.074993569867e+01
2.962331457611e+01
3.073625074991e+01
2.957761766858e+01
4.925002426906e+01
2.901457746550e+01
2.901292563169e+01
2.900044913878e+01
2.900099315137e+01
3.888828524369e+01
3.886925128897e+01
3.883951041887e+01
3.892780555327e+01
2.957449224454e+01
3.129917147988e+01
3.441231952904e+01
3.447378486027e+01
3.121931994018e+01
2.957372760336e+01
2.945572505958e+01
3.011311144378e+01
2.961699511490e+01
2.957432415974e+01
3.129283017386e+01
3.439788054294e+01
2.946235976013e+01
3.011735654589e+01
2.960122431717e+01
2.954330809078e+01
3.138104020029e+01
3.435177600119e+01
2.945575720813e+01
3.011449771793e+01
2.962088071134e+01
2.961684010744e+01
3.011510819858e+01
2.945617462641e+01
3.124339334862e+01
3.012580604805e+01
3.123424585126e+01
3.014137096608e+01
3.123641226707e+01
3.014877022800e+01
3.122314562939e+01
3.010452376445e+01
4.925796776755e+01
2.916600073480e+01
2.916441962840e+01
2.915218404373e+01
2.915251812482e+01
3.891339402584e+01
3.889449591008e+01
3.886463058800e+01
3.895305216641e+01
2.971706468952e+01
3.141637815024e+01
3.448754585259e+01
3.454805315397e+01
3.133761587922e+01
2.971630395120e+01
2.959965059734e+01
3.024655581908e+01
2.975855538053e+01
2.971692087968e+01
3.141012063041e+01
3.447318142925e+01
2.960623152580e+01
3.025074428964e+01
2.974303149616e+01
2.968629732370e+01
3.149709466209e+01
3.442777691796e+01
2.959972863360e+01
3.024789488117e+01
2.976240275396e+01
2.975842387559e+01
3.024850712467e+01
2.960007946572e+01
3.136038523377e+01
3.025978336222e+01
3.135139382774e+01
3.027504817208e+01
3.135351559025e+01
3.028240548965e+01
3.134042259038e+01
3.023879980118e+01
4.918152986283e+01
2.917740885796e+01
2.917586618102e+01
2.916371848851e+01
2.916401322793e+01
3.887297745542e+01
3.885393920910e+01
3.882404267898e+01
3.891236410948e+01
2.972371811344e+01
3.141072956243e+01
3.446412203049e+01
3.452422633244e+01
3.133241864657e+01
2.972294899468e+01
2.960681252394e+01
3.024810937902e+01
2.976461874740e+01
2.972359230062e+01
3.140449925746e+01
3.444974427925e+01
2.961336184250e+01
3.025227120280e+01
2.974922072009e+01
2.969316029559e+01
3.149093931084e+01
3.440461160914e+01
2.960691299033e+01
3.024942313071e+01
2.976845130024e+01
2.976450080553e+01
3.025003979130e+01
2.960723320929e+01
3.135391999215e+01
3.026194069837e+01
3.134500968487e+01
3.027701399283e+01
3.134710190620e+01
3.028440214767e+01
3.133408890168e+01
3.024110605558e+01
4.910653566555e+01
2.896441352513e+01
2.896306831759e+01
2.895146088937e+01
2.895132221549e+01
3.845306427325e+01
3.843375234864e+01
3.840273749667e+01
3.849324003393e+01
2.948883024981e+01
3.111866181567e+01
3.409628674463e+01
3.415440134051e+01
3.104231806901e+01
2.948814328323e+01
2.937433395656e+01
2.998937025708e+01
2.952675921165e+01
2.948877557090e+01
3.111254083174e+01
3.408147693556e+01
2.938072736462e+01
2.999339816246e+01
2.951193292853e+01
2.945908394431e+01
3.119669151284e+01
3.403762346836e+01
2.937450647450e+01
2.999052699702e+01
2.953053307148e+01
2.952672831573e+01
2.999118722787e+01
2.937469476328e+01
3.105685046429e+01
3.000607685436e+01
3.104834480223e+01
3.002023127060e+01
3.105037649492e+01
3.002780606386e+01
3.103768755424e+01
2.998595309953e+01
4.856905404442e+01
2.880003782693e+01
2.879885232353e+01
2.878768745972e+01
2.878721901858e+01
3.810879727105e+01
3.808918630989e+01
3.805741047187e+01
3.814924692413e+01
2.930607652907e+01
3.088776297706e+01
3.380031847148e+01
3.385677538557e+01
3.081310282930e+01
2.930544978503e+01
2.919363759037e+01
2.978668306447e+01
2.934155579453e+01
2.930607982317e+01
3.088173823138e+01
3.378519886098e+01
2.919989558989e+01
2.979059612128e+01
2.932721027838e+01
2.927703447794e+01
3.096393461213e+01
3.374242424537e+01
2.919386771220e+01
2.978771198355e+01
2.934528053034e+01
2.934159627245e+01
2.978840787137e+01
2.919395100182e+01
3.082201554011e+01
2.980573295940e+01
3.081384529258e+01
2.981912374280e+01
3.081582106321e+01
2.982684331445e+01
3.080341245676e+01
2.978620612995e+01
4.812066947215e+01
2.868074156228e+01
2.867968415244e+01
2.866889285413e+01
2.866816692817e+01
3.783035564350e+01
3.781054906909e+01
3.777820500657e+01
3.787098705442e+01
2.917120760934e+01
3.071158769196e+01
3.356721501339e+01
3.362224704861e+01
3.063839932183e+01
2.917063544740e+01
2.906063210615e+01
2.963505060754e+01
2.920467303351e+01
2.917125570559e+01
3.070564973080e+01
3.355186107348e+01
2.906676750734e+01
2.963886450391e+01
2.919073649421e+01
2.914277463324e+01
3.078614758505e+01
3.351002119612e+01
2.906090380350e+01
2.963597537460e+01
2.920835108034e+01
2.920476991521e+01
2.963669874004e+01
2.906090696401e+01
3.064276904027e+01
2.965591838369e+01
3.063488227712e+01
2.966867523438e+01
3.063681398121e+01
2.967649740530e+01
3.062464980495e+01
2.963690523368e+01
4.774174872941e+01
2.859512114645e+01
2.859416463612e+01
2.858367834416e+01
2.858275756063e+01
3.760947482211e+01
3.758953914176e+01
3.755679507815e+01
3.765018443501e+01
2.907275810042e+01
3.057883276689e+01
3.338651694029e+01
3.344036802592e+01
3.050688272065e+01
2.907223190679e+01
2.896378550256e+01
2.952286740130e+01
2.910460345111e+01
2.907284057943e+01
3.057296922781e+01
3.337098926993e+01
2.896981491579e+01
2.952659850168e+01
2.909100463194e+01
2.904483571570e+01
3.065204326687e+01
3.332992702123e+01
2.896408696827e+01
2.952370916504e+01
2.910824012169e+01
2.910474429363e+01
2.952445353616e+01
2.896402981337e+01
3.050764132055e+01
2.954513692608e+01
3.049998725473e+01
2.955737907401e+01
3.050188412753e+01
2.956527447292e+01
3.048992568771e+01
2.952655135258e+01
4.743085823751e+01
2.854023912187e+01
2.853935712989e+01
2.852910876116e+01
2.852805084343e+01
3.744365231792e+01
3.742365225570e+01
3.739066121677e+01
3.748435913339e+01
2.900778967287e+01
3.048656785992e+01
3.325537215009e+01
3.330828445285e+01
3.041562094387e+01
2.900730125360e+01
2.890015457371e+01
2.944718580947e+01
2.903840298391e+01
2.900789640653e+01
3.048076630794e+01
3.323972826217e+01
2.890609550316e+01
2.945085064508e+01
2.902507076741e+01
2.898027763018e+01
3.055869276981e+01
3.319928759587e+01
2.890047477111e+01
2.944796517104e+01
2.904200387227e+01
2.903857571493e+01
2.944872420576e+01
2.890037599385e+01
3.041368771756e+01
2.947044858877e+01
3.040621608140e+01
2.948229470205e+01
3.040808742776e+01
2.949023443591e+01
3.039629531534e+01
2.945220407828e+01
4.718614997944e+01
2.851264630086e+01
2.851181365792e+01
2.850173707031e+01
2.850059576884e+01
3.733020287435e+01
3.731019718181e+01
3.727709677672e+01
3.737084282659e+01
2.897283299514e+01
3.043133215493e+01
3.317049492940e+01
3.322271068301e+01
3.036114887232e+01
2.897237407095e+01
2.886625771244e+01
2.940449763372e+01
2.900259122857e+01
2.897295448416e+01
3.042557956187e+01
3.315478726641e+01
2.887212859732e+01
2.940811292789e+01
2.898945486409e+01
2.894562965640e+01
3.050263831190e+01
3.311481087852e+01
2.886658664316e+01
2.940523446049e+01
2.900616244321e+01
2.900278437521e+01
2.940600216044e+01
2.886646356462e+01
3.035740526567e+01
2.942836868339e+01
3.035006644240e+01
2.943993490694e+01
3.035192123370e+01
2.944789276471e+01
3.034025525784e+01
2.941037843872e+01
4.700635226223e+01
2.851101667546e+01
2.851020900878e+01
2.850023927114e+01
2.849906588932e+01
3.726780727012e+01
3.724785310416e+01
3.721477131706e+01
3.730832963103e+01
2.896652490180e+01
3.041170083228e+01
3.313043030394e+01
3.318218892718e+01
3.034204285939e+01
2.896608689634e+01
2.886072688308e+01
2.939339076995e+01
2.899579552175e+01
2.896665209107e+01
3.040598409973e+01
3.311470947488e+01
2.886654649344e+01
2.939697306999e+01
2.898278506729e+01
2.893952959387e+01
3.048245319889e+01
3.307504194651e+01
2.886105524663e+01
2.939410438134e+01
2.899934347855e+01
2.899599809316e+01
2.939487505849e+01
2.886092433573e+01
3.033734736019e+01
2.941750186709e+01
3.033009227178e+01
2.942890196332e+01
3.033193890239e+01
2.943685344342e+01
3.032035920305e+01
2.939967978496e+01
4.689082130085e+01
2.853538535476e+01
2.853457721889e+01
2.852464930640e+01
2.852349945819e+01
3.725508922971e+01
3.723525024222e+01
3.720232676841e+01
3.729542909932e+01
2.898886320443e+01
3.042745398326e+01
3.313451691911e+01
3.318605082380e+01
3.035809334719e+01
2.898843914245e+01
2.888359392817e+01
2.941384978795e+01
2.901802271882e+01
2.898898621185e+01
3.042176122466e+01
3.311883568466e+01
2.888937908446e+01
2.941741543440e+01
2.900506987008e+01
2.896197740305e+01
3.049790784124e+01
3.307932600784e+01
2.888391098572e+01
2.941456015916e+01
2.902155227918e+01
2.901822273976e+01
2.941532723643e+01
2.888379020077e+01
3.035332670063e+01
2.943779807204e+01
3.034610773231e+01
2.944914709845e+01
3.034795579481e+01
2.945706319973e+01
3.033642352127e+01
2.942006094704e+01
4.683499169256e+01
2.855389868568e+01
2.855309109844e+01
2.854317353760e+01
2.854201424417e+01
3.726604438803e+01
3.724625605564e+01
3.721337236765e+01
3.730638920932e+01
2.900718238402e+01
3.044517139054e+01
3.315023137401e+01
3.320173323715e+01
3.037586791501e+01
2.900675152113e+01
2.890193292636e+01
2.943199463912e+01
2.903632230965e+01
2.900730616815e+01
3.043948432423e+01
3.313458759600e+01
2.890771810559e+01
2.943555639203e+01
2.902337414537e+01
2.898032252858e+01
3.051557259845e+01
3.309511352034e+01
2.890225288116e+01
2.943270434502e+01
2.903985328310e+01
2.903652473478e+01
2.943347288721e+01
2.890213011801e+01
3.037124057428e+01
2.945594710951e+01
3.036401961310e+01
2.946729326296e+01
3.036586032563e+01
2.947520438300e+01
3.035433999274e+01
2.943821633708e+01
4.684026306896e+01
2.862118317710e+01
2.862036757001e+01
2.861043683312e+01
2.860940460964e+01
3.731557428191e+01
3.729575292043e+01
3.726307554430e+01
3.735546081299e+01
2.907274604378e+01
3.050556707762e+01
3.320458818714e+01
3.325599088479e+01
3.043639530763e+01
2.907234048856e+01
2.896798380971e+01
2.949594174153e+01
2.910185264209e+01
2.907286372894e+01
3.049988156056e+01
3.318889065593e+01
2.897372186350e+01
2.949949639174e+01
2.908895103114e+01
2.904594769944e+01
3.057581189547e+01
3.314943559610e+01
2.896827641394e+01
2.949665477587e+01
2.910535720441e+01
2.910204220839e+01
2.949741562213e+01
2.896818185045e+01
3.043115222040e+01
2.951976745811e+01
3.042396939961e+01
2.953105702962e+01
3.042582733292e+01
2.953896265205e+01
3.041432947576e+01
2.950211440188e+01
4.685231913710e+01
2.880007752386e+01
2.879926330769e+01
2.878961888701e+01
2.878807892067e+01
3.739135050432e+01
3.737189257566e+01
3.733860112589e+01
3.743281983751e+01
2.925176308272e+01
3.067757463107e+01
3.334395704444e+01
3.339463742522e+01
3.060931830752e+01
2.925137861606e+01
2.914799441421e+01
2.967622679964e+01
2.928105024003e+01
2.925185839061e+01
3.067202021183e+01
3.332881279928e+01
2.915376424120e+01
2.967973433146e+01
2.926818328262e+01
2.922514068513e+01
3.074708317675e+01
3.329025125203e+01
2.914832118203e+01
2.967692844513e+01
2.928456698356e+01
2.928127168862e+01
2.967769334389e+01
2.914818329977e+01
3.060838447493e+01
2.969840362397e+01
3.060117964237e+01
2.970987372097e+01
3.060300691844e+01
2.971745538848e+01
3.059163238964e+01
2.968078761736e+01
4.689116137842e+01
2.904311042677e+01
2.904262135179e+01
2.903253769440e+01
2.903216138491e+01
3.771401794496e+01
3.769548747019e+01
3.766869201867e+01
3.774523631796e+01
2.947127210439e+01
3.087925369738e+01
3.359258248325e+01
3.364492288609e+01
3.080980673918e+01
2.947034337992e+01
2.936213375322e+01
2.986359665163e+01
2.949557066579e+01
2.947166152558e+01
3.087327254380e+01
3.357609800247e+01
2.936782307147e+01
2.986706325688e+01
2.948304327736e+01
2.944553621355e+01
3.094900956902e+01
3.353460271776e+01
2.936263858088e+01
2.986412843297e+01
2.949921103398e+01
2.949596241487e+01
2.986507888730e+01
2.936234543096e+01
3.078675340340e+01
2.989978681636e+01
3.077973484926e+01
2.990936709454e+01
3.078120795364e+01
2.991888467271e+01
3.076996575713e+01
2.988256850461e+01
4.691212784369e+01
2.917216891289e+01
2.917188781935e+01
2.916546688131e+01
2.916596148390e+01
3.561345364569e+01
3.557850849637e+01
3.550194777351e+01
3.570523057965e+01
2.942750982518e+01
3.028844843966e+01
3.209408122517e+01
3.212058985905e+01
3.024208334524e+01
2.942798882949e+01
2.936019983653e+01
2.965496189156e+01
2.944006375798e+01
2.942786319099e+01
3.028437942367e+01
3.207927438148e+01
2.936342901634e+01
2.965726760611e+01
2.943249534616e+01
2.940991538279e+01
3.033473843399e+01
3.206319852437e+01
2.936044365748e+01
2.965528346974e+01
2.944222829068e+01
2.944029237930e+01
2.965586178541e+01
2.936044561331e+01
3.020153386904e+01
2.968225213093e+01
3.019735735181e+01
2.968705522078e+01
3.019794756042e+01
2.969420040888e+01
3.019072076233e+01
2.967204659647e+01
4.576109036556e+01
2.919328521584e+01
2.919300275329e+01
2.918870201264e+01
2.918842621879e+01
3.178981361406e+01
3.180464020652e+01
3.186116669925e+01
3.171488537207e+01
2.938052429403e+01
2.996975328152e+01
3.099510906919e+01
3.102414518117e+01
2.994324204365e+01
2.937949813899e+01
2.933724797279e+01
2.955925019405e+01
2.939382621136e+01
2.938046139058e+01
2.996751032789e+01
3.099156196136e+01
2.933968713734e+01
2.956060025667e+01
2.938851538096e+01
2.937086476256e+01
2.999647066500e+01
3.096228783422e+01
2.933724126529e+01
2.955947059670e+01
2.939527810088e+01
2.939386928823e+01
2.955979076748e+01
2.933713352338e+01
2.995511677609e+01
2.956730631245e+01
2.995239534169e+01
2.957240000672e+01
2.995386234422e+01
2.957495261151e+01
2.994906879190e+01
2.955978934161e+01
3.030648365937e+01
2.921869619752e+01
2.921827813455e+01
2.921655590004e+01
2.921475851045e+01
3.023903424160e+01
3.025143798893e+01
3.027299827953e+01
3.022153874089e+01
2.934329730834e+01
2.968452722095e+01
3.012614818351e+01
3.013878890682e+01
2.967360783826e+01
2.934235732183e+01
2.932251311867e+01
2.947237703448e+01
2.935516364918e+01
2.934314358926e+01
2.968400885160e+01
3.012836708694e+01
2.932428685952e+01
2.947309771750e+01
2.935190132477e+01
2.933852070914e+01
2.969663660096e+01
3.011774103986e+01
2.932283459034e+01
2.947277449185e+01
2.935594023437e+01
2.935509095352e+01
2.947277888173e+01
2.932256476762e+01
2.971316493997e+01
2.946459876088e+01
2.971100253725e+01
2.946944232101e+01
2.971133611373e+01
2.946882036933e+01
2.970925437660e+01
2.945999848828e+01
3.060220012871e+01
2.925550228408e+01
2.925513899467e+01
2.925486382487e+01
2.925263976892e+01
2.976546648997e+01
2.976788685817e+01
2.977165891416e+01
2.976346572541e+01
2.933056629168e+01
2.950255622954e+01
2.968774685055e+01
2.969238708549e+01
2.949791683794e+01
2.933072232602e+01
2.932446936124e+01
2.941298519988e+01
2.933897466383e+01
2.933027403749e+01
2.950260848319e+01
2.968915205555e+01
2.932538337181e+01
2.941333071334e+01
2.933723039363e+01
2.932735622099e+01
2.950848195858e+01
2.968643560377e+01
2.932447956093e+01
2.941318939327e+01
2.933932401618e+01
2.933888861721e+01
2.941310676654e+01
2.932441979511e+01
2.953030690127e+01
2.939988706367e+01
2.952927952804e+01
2.940341416578e+01
2.952980852285e+01
2.940176369435e+01
2.952859458322e+01
2.939740237670e+01
2.972207728006e+01
2.930788760180e+01
2.930758677827e+01
2.930736844124e+01
2.930657627314e+01
2.952126884239e+01
2.952250793045e+01
2.952505052831e+01
2.951894781911e+01
2.934684734526e+01
2.942302554033e+01
2.949812048514e+01
2.950016032871e+01
2.942098110732e+01
2.934720485354e+01
2.934704708754e+01
2.939209603339e+01
2.935255441219e+01
2.934659184581e+01
2.942310690205e+01
2.949864223722e+01
2.934735389009e+01
2.939231229041e+01
2.935173415980e+01
2.934500289999e+01
2.942576602568e+01
2.949734505707e+01
2.934687930675e+01
2.939228075999e+01
2.935255166232e+01
2.935236706217e+01
2.939212120453e+01
2.934700356012e+01
2.943935653028e+01
2.938113647957e+01
2.943898450225e+01
2.938322818394e+01
2.943951054619e+01
2.938188806029e+01
2.943881873458e+01
2.938002616722e+01
2.953285968868e+01
2.961309583984e+01
2.961308479852e+01
2.961299492554e+01
2.961321527010e+01
2.959846851076e+01
2.959835468041e+01
2.959807292116e+01
2.959876594752e+01
2.961130799945e+01
2.960627557407e+01
2.960035992985e+01
2.960019569060e+01
2.960638035330e+01
2.961128460107e+01
2.961175603327e+01
2.960966407381e+01
2.961132262092e+01
2.961131248026e+01
2.960628432413e+01
2.960033372521e+01
2.961173219268e+01
2.960968133123e+01
2.961138174436e+01
2.961136871197e+01