# vtk DataFile Version 3.0
Unstructured Grid from OpenGeoSys
ASCII
DATASET UNSTRUCTURED_GRID
FIELD TimesAndCycles 2
TIME 1 1 double
3.600000000000e+03
CYLCE 1 1 long
1
POINTS 1394 double
0.000000000000e+00 0.000000000000e+00 0.000000000000e+00
5.000000000000e+00 0.000000000000e+00 0.000000000000e+00
5.000000000000e+00 5.000000000000e+00 0.000000000000e+00
0.000000000000e+00 5.000000000000e+00 0.000000000000e+00
2.244234909000e+00 2.244234909000e+00 0.000000000000e+00
2.755765091000e+00 2.244234909000e+00 0.000000000000e+00
2.755765091000e+00 2.755765091000e+00 0.000000000000e+00
2.244234909000e+00 2.755765091000e+00 0.000000000000e+00
7.141316008320e-01 7.141316008320e-01 0.000000000000e+00
1.314642334730e+00 1.314642334730e+00 0.000000000000e+00
1.819609643610e+00 1.819609643610e+00 0.000000000000e+00
1.819609643610e+00 3.180390356390e+00 0.000000000000e+00
1.314642334740e+00 3.685357665260e+00 0.000000000000e+00
7.141316008360e-01 4.285868399160e+00 0.000000000000e+00
0.000000000000e+00 3.750000000000e+00 0.000000000000e+00
0.000000000000e+00 2.500000000000e+00 0.000000000000e+00
0.000000000000e+00 1.250000000000e+00 0.000000000000e+00
4.285868399170e+00 7.141316008320e-01 0.000000000000e+00
3.685357665270e+00 1.314642334730e+00 0.000000000000e+00
3.180390356390e+00 1.819609643610e+00 0.000000000000e+00
1.250000000000e+00 0.000000000000e+00 0.000000000000e+00
2.500000000000e+00 0.000000000000e+00 0.000000000000e+00
3.750000000000e+00 0.000000000000e+00 0.000000000000e+00
4.285868399170e+00 4.285868399170e+00 0.000000000000e+00
3.685357665270e+00 3.685357665270e+00 0.000000000000e+00
3.180390356390e+00 3.180390356390e+00 0.000000000000e+00
5.000000000000e+00 1.250000000000e+00 0.000000000000e+00
5.000000000000e+00 2.500000000000e+00 0.000000000000e+00
5.000000000000e+00 3.750000000000e+00 0.000000000000e+00
3.750000000000e+00 5.000000000000e+00 0.000000000000e+00
2.500000000000e+00 5.000000000000e+00 0.000000000000e+00
1.250000000000e+00 5.000000000000e+00 0.000000000000e+00
9.560744151940e-01 2.677827143250e+00 0.000000000000e+00
6.659597640160e-01 1.438876720610e+00 0.000000000000e+00
2.309219871940e+00 9.522638293400e-01 0.000000000000e+00
3.458157207860e+00 6.354750772000e-01 0.000000000000e+00
4.043925584810e+00 2.322172856750e+00 0.000000000000e+00
4.334040235980e+00 3.561123279390e+00 0.000000000000e+00
2.318530875810e+00 4.048536535600e+00 0.000000000000e+00
3.552396921680e+00 4.370927842320e+00 0.000000000000e+00
2.500000000000e+00 2.500000000000e+00 0.000000000000e+00
0.000000000000e+00 0.000000000000e+00 -5.000000000000e-01
5.000000000000e+00 0.000000000000e+00 -5.000000000000e-01
5.000000000000e+00 5.000000000000e+00 -5.000000000000e-01
0.000000000000e+00 5.000000000000e+00 -5.000000000000e-01
2.244234909000e+00 2.244234909000e+00 -5.000000000000e-01
2.755765091000e+00 2.244234909000e+00 -5.000000000000e-01
2.755765091000e+00 2.755765091000e+00 -5.000000000000e-01
2.244234909000e+00 2.755765091000e+00 -5.000000000000e-01
7.141316008320e-01 7.141316008320e-01 -5.000000000000e-01
1.314642334730e+00 1.314642334730e+00 -5.000000000000e-01
1.819609643610e+00 1.819609643610e+00 -5.000000000000e-01
1.819609643610e+00 3.180390356390e+00 -5.000000000000e-01
1.314642334740e+00 3.685357665260e+00 -5.000000000000e-01
7.141316008360e-01 4.285868399160e+00 -5.000000000000e-01
0.000000000000e+00 3.750000000000e+00 -5.000000000000e-01
0.000000000000e+00 2.500000000000e+00 -5.000000000000e-01
0.000000000000e+00 1.250000000000e+00 -5.000000000000e-01
4.285868399170e+00 7.141316008320e-01 -5.000000000000e-01
3.685357665270e+00 1.314642334730e+00 -5.000000000000e-01
3.180390356390e+00 1.819609643610e+00 -5.000000000000e-01
1.250000000000e+00 0.000000000000e+00 -5.000000000000e-01
2.500000000000e+00 0.000000000000e+00 -5.000000000000e-01
3.750000000000e+00 0.000000000000e+00 -5.000000000000e-01
4.285868399170e+00 4.285868399170e+00 -5.000000000000e-01
3.685357665270e+00 3.685357665270e+00 -5.000000000000e-01
3.180390356390e+00 3.180390356390e+00 -5.000000000000e-01
5.000000000000e+00 1.250000000000e+00 -5.000000000000e-01
5.000000000000e+00 2.500000000000e+00 -5.000000000000e-01
5.000000000000e+00 3.750000000000e+00 -5.000000000000e-01
3.750000000000e+00 5.000000000000e+00 -5.000000000000e-01
2.500000000000e+00 5.000000000000e+00 -5.000000000000e-01
1.250000000000e+00 5.000000000000e+00 -5.000000000000e-01
9.560744151940e-01 2.677827143250e+00 -5.000000000000e-01
6.659597640160e-01 1.438876720610e+00 -5.000000000000e-01
2.309219871940e+00 9.522638293400e-01 -5.000000000000e-01
3.458157207860e+00 6.354750772000e-01 -5.000000000000e-01
4.043925584810e+00 2.322172856750e+00 -5.000000000000e-01
4.334040235980e+00 3.561123279390e+00 -5.000000000000e-01
2.318530875810e+00 4.048536535600e+00 -5.000000000000e-01
3.552396921680e+00 4.370927842320e+00 -5.000000000000e-01
2.500000000000e+00 2.500000000000e+00 -5.000000000000e-01
0.000000000000e+00 0.000000000000e+00 -1.000000000000e+00
5.000000000000e+00 0.000000000000e+00 -1.000000000000e+00
5.000000000000e+00 5.000000000000e+00 -1.000000000000e+00
0.000000000000e+00 5.000000000000e+00 -1.000000000000e+00
2.244234909000e+00 2.244234909000e+00 -1.000000000000e+00
2.755765091000e+00 2.244234909000e+00 -1.000000000000e+00
2.755765091000e+00 2.755765091000e+00 -1.000000000000e+00
2.244234909000e+00 2.755765091000e+00 -1.000000000000e+00
7.141316008320e-01 7.141316008320e-01 -1.000000000000e+00
1.314642334730e+00 1.314642334730e+00 -1.000000000000e+00
1.819609643610e+00 1.819609643610e+00 -1.000000000000e+00
1.819609643610e+00 3.180390356390e+00 -1.000000000000e+00
1.314642334740e+00 3.685357665260e+00 -1.000000000000e+00
7.141316008360e-01 4.285868399160e+00 -1.000000000000e+00
0.000000000000e+00 3.750000000000e+00 -1.000000000000e+00
0.000000000000e+00 2.500000000000e+00 -1.000000000000e+00
0.000000000000e+00 1.250000000000e+00 -1.000000000000e+00
4.285868399170e+00 7.141316008320e-01 -1.000000000000e+00
3.685357665270e+00 1.314642334730e+00 -1.000000000000e+00
3.180390356390e+00 1.819609643610e+00 -1.000000000000e+00
1.250000000000e+00 0.000000000000e+00 -1.000000000000e+00
2.500000000000e+00 0.000000000000e+00 -1.000000000000e+00
3.750000000000e+00 0.000000000000e+00 -1.000000000000e+00
4.285868399170e+00 4.285868399170e+00 -1.000000000000e+00
3.685357665270e+00 3.685357665270e+00 -1.000000000000e+00
3.180390356390e+00 3.180390356390e+00 -1.000000000000e+00
5.000000000000e+00 1.250000000000e+00 -1.000000000000e+00
5.000000000000e+00 2.500000000000e+00 -1.000000000000e+00
5.000000000000e+00 3.750000000000e+00 -1.000000000000e+00
3.750000000000e+00 5.000000000000e+00 -1.000000000000e+00
2.500000000000e+00 5.000000000000e+00 -1.000000000000e+00
1.250000000000e+00 5.000000000000e+00 -1.000000000000e+00
9.560744151940e-01 2.677827143250e+00 -1.000000000000e+00
6.659597640160e-01 1.438876720610e+00 -1.000000000000e+00
2.309219871940e+00 9.522638293400e-01 -1.000000000000e+00
3.458157207860e+00 6.354750772000e-01 -1.000000000000e+00
4.043925584810e+00 2.322172856750e+00 -1.000000000000e+00
4.334040235980e+00 3.561123279390e+00 -1.000000000000e+00
2.318530875810e+00 4.048536535600e+00 -1.000000000000e+00
3.552396921680e+00 4.370927842320e+00 -1.000000000000e+00
2.500000000000e+00 2.500000000000e+00 -1.000000000000e+00
0.000000000000e+00 0.000000000000e+00 -3.000000000000e+00
5.000000000000e+00 0.000000000000e+00 -3.000000000000e+00
5.000000000000e+00 5.000000000000e+00 -3.000000000000e+00
0.000000000000e+00 5.000000000000e+00 -3.000000000000e+00
2.244234909000e+00 2.244234909000e+00 -3.000000000000e+00
2.755765091000e+00 2.244234909000e+00 -3.000000000000e+00
2.755765091000e+00 2.755765091000e+00 -3.000000000000e+00
2.244234909000e+00 2.755765091000e+00 -3.000000000000e+00
7.141316008320e-01 7.141316008320e-01 -3.000000000000e+00
1.314642334730e+00 1.314642334730e+00 -3.000000000000e+00
1.819609643610e+00 1.819609643610e+00 -3.000000000000e+00
1.819609643610e+00 3.180390356390e+00 -3.000000000000e+00
1.314642334740e+00 3.685357665260e+00 -3.000000000000e+00
7.141316008360e-01 4.285868399160e+00 -3.000000000000e+00
0.000000000000e+00 3.750000000000e+00 -3.000000000000e+00
0.000000000000e+00 2.500000000000e+00 -3.000000000000e+00
0.000000000000e+00 1.250000000000e+00 -3.000000000000e+00
4.285868399170e+00 7.141316008320e-01 -3.000000000000e+00
3.685357665270e+00 1.314642334730e+00 -3.000000000000e+00
3.180390356390e+00 1.819609643610e+00 -3.000000000000e+00
1.250000000000e+00 0.000000000000e+00 -3.000000000000e+00
2.500000000000e+00 0.000000000000e+00 -3.000000000000e+00
3.750000000000e+00 0.000000000000e+00 -3.000000000000e+00
4.285868399170e+00 4.285868399170e+00 -3.000000000000e+00
3.685357665270e+00 3.685357665270e+00 -3.000000000000e+00
3.180390356390e+00 3.180390356390e+00 -3.000000000000e+00
5.000000000000e+00 1.250000000000e+00 -3.000000000000e+00
5.000000000000e+00 2.500000000000e+00 -3.000000000000e+00
5.000000000000e+00 3.750000000000e+00 -3.000000000000e+00
3.750000000000e+00 5.000000000000e+00 -3.000000000000e+00
2.500000000000e+00 5.000000000000e+00 -3.000000000000e+00
1.250000000000e+00 5.000000000000e+00 -3.000000000000e+00
9.560744151940e-01 2.677827143250e+00 -3.000000000000e+00
6.659597640160e-01 1.438876720610e+00 -3.000000000000e+00
2.309219871940e+00 9.522638293400e-01 -3.000000000000e+00
3.458157207860e+00 6.354750772000e-01 -3.000000000000e+00
4.043925584810e+00 2.322172856750e+00 -3.000000000000e+00
4.334040235980e+00 3.561123279390e+00 -3.000000000000e+00
2.318530875810e+00 4.048536535600e+00 -3.000000000000e+00
3.552396921680e+00 4.370927842320e+00 -3.000000000000e+00
2.500000000000e+00 2.500000000000e+00 -3.000000000000e+00
0.000000000000e+00 0.000000000000e+00 -5.000000000000e+00
5.000000000000e+00 0.000000000000e+00 -5.000000000000e+00
5.000000000000e+00 5.000000000000e+00 -5.000000000000e+00
0.000000000000e+00 5.000000000000e+00 -5.000000000000e+00
2.244234909000e+00 2.244234909000e+00 -5.000000000000e+00
[...]
POINT_DATA 1394
SCALARS TEMPERATURE1 double 1
LOOKUP_TABLE default
1.000000000000e+01
1.000000000000e+01
1.000000000000e+01
1.000000000000e+01
1.000000000000e+01
1.000000000000e+01
1.000000000000e+01
1.000000000000e+01
1.000000000000e+01
1.000000000000e+01
1.000000000000e+01
1.000000000000e+01
1.000000000000e+01
1.000000000000e+01
1.000000000000e+01
1.000000000000e+01
1.000000000000e+01
1.000000000000e+01
1.000000000000e+01
1.000000000000e+01
1.000000000000e+01
1.000000000000e+01
1.000000000000e+01
1.000000000000e+01
1.000000000000e+01
1.000000000000e+01
1.000000000000e+01
1.000000000000e+01
1.000000000000e+01
1.000000000000e+01
1.000000000000e+01
1.000000000000e+01
1.000000000000e+01
1.000000000000e+01
1.000000000000e+01
1.000000000000e+01
1.000000000000e+01
1.000000000000e+01
1.000000000000e+01
1.000000000000e+01
1.000000000000e+01
1.727124248233e+01
1.726991804680e+01
1.726367368707e+01
1.726980244392e+01
1.999545175718e+01
2.001357816621e+01
2.009638871136e+01
1.987839669642e+01
1.746048691214e+01
1.800858108401e+01
1.910006399695e+01
1.913412915397e+01
1.797891705044e+01
1.746181640312e+01
1.743575106485e+01
1.765252863151e+01
1.748348520230e+01
1.745961080674e+01
1.800554719243e+01
1.909198505045e+01
1.743618642230e+01
1.765411603891e+01
1.747819103854e+01
1.744891983912e+01
1.803787386800e+01
1.905384284047e+01
1.743353881805e+01
1.765331540097e+01
1.748369925754e+01
1.748261102220e+01
1.765311328078e+01
1.743560335806e+01
1.797479285695e+01
1.764019072906e+01
1.797300924825e+01
1.764591296102e+01
1.797688194506e+01
1.764750128395e+01
1.797113204309e+01
1.763400868489e+01
1.754322745515e+01
2.488893800318e+01
2.488748708840e+01
2.487153352442e+01
2.488859442455e+01
3.469754731195e+01
3.466562093247e+01
3.455377402266e+01
3.485957881431e+01
2.523138111573e+01
2.658836404214e+01
2.948809885966e+01
2.953321428724e+01
2.651513968072e+01
2.522757807831e+01
2.510585543687e+01
2.551731403147e+01
2.524565352281e+01
2.523262248480e+01
2.658153876672e+01
2.946747493395e+01
2.510940471092e+01
2.552046237280e+01
2.523399860663e+01
2.521079010621e+01
2.666029464884e+01
2.943889809088e+01
2.510593103372e+01
2.551846358143e+01
2.524917602556e+01
2.524556900144e+01
2.551974387872e+01
2.510754340538e+01
2.641518425059e+01
2.559874360191e+01
2.640696842609e+01
2.560181992866e+01
2.640470409558e+01
2.561953524085e+01
2.639577641768e+01
2.558407425867e+01
5.044995676532e+01
2.907214972477e+01
2.907127910877e+01
2.905905849238e+01
2.906626448392e+01
3.859311639902e+01
3.857094545783e+01
3.849640219981e+01
3.870589227611e+01
2.946073397027e+01
3.093776431012e+01
3.386855847913e+01
3.391881460575e+01
3.086496095121e+01
2.945691504491e+01
2.931979171615e+01
2.978819020797e+01
2.947048869788e+01
2.946198433484e+01
3.093112784782e+01
3.385160627524e+01
2.932496511896e+01
2.979069225003e+01
2.945749045387e+01
2.943898687807e+01
3.101112256178e+01
3.381724710343e+01
2.932044790121e+01
2.978821287442e+01
2.947559028401e+01
2.947163155595e+01
2.979047957109e+01
2.932101499871e+01
3.079938815370e+01
2.987445911137e+01
3.079038259934e+01
2.987927579772e+01
3.078847996339e+01
2.989646475322e+01
3.077905413014e+01
2.985755372508e+01
5.136396334636e+01
3.159381543941e+01
3.159262277779e+01
3.158109507113e+01
3.158904073108e+01
4.022840817396e+01
4.020806632529e+01
4.014264122207e+01
4.032601105116e+01
3.195708913109e+01
3.329825183416e+01
3.595235199554e+01
3.599849028454e+01
3.323199819045e+01
3.195426287508e+01
3.183555922452e+01
3.227142406883e+01
3.197074849396e+01
3.195790665953e+01
3.329227569912e+01
3.593680413544e+01
3.183977996375e+01
3.227378094593e+01
3.195879851325e+01
3.193676887538e+01
3.336532649419e+01
3.590514049431e+01
3.183557017962e+01
3.227172898606e+01
3.197506522022e+01
3.197152833169e+01
3.227357993502e+01
3.183669807154e+01
3.317885110328e+01
3.233920343876e+01
3.317071198666e+01
3.234447992189e+01
3.316955954986e+01
3.235907906625e+01
3.316082910381e+01
3.232396137936e+01
5.186733050406e+01
3.299160109114e+01
3.299031407892e+01
3.297914519016e+01
3.298686328054e+01
4.128986451740e+01
4.127077258320e+01
4.121464800526e+01
4.137251677502e+01
3.335061463118e+01
3.464885435163e+01
3.720996771417e+01
3.725556421954e+01
3.458465732587e+01
3.334831955593e+01
3.323685117773e+01
3.366602168958e+01
3.336644009738e+01
3.335123113926e+01
3.464306328252e+01
3.719489308043e+01
3.324078562436e+01
3.366836592691e+01
3.335479246802e+01
3.333043889146e+01
3.471393189655e+01
3.716278462865e+01
3.323659105675e+01
3.366641504578e+01
3.337044087941e+01
3.336707244659e+01
3.366808724926e+01
3.323789151864e+01
3.453803195592e+01
3.372497516649e+01
3.453027936332e+01
3.373072203610e+01
3.452965102242e+01
3.374407633425e+01
3.452098212184e+01
3.371020940686e+01
5.209621032240e+01
3.372126784366e+01
3.371996238395e+01
3.370891585923e+01
3.371662591089e+01
4.183678513662e+01
4.181858583099e+01
4.176979583246e+01
4.190739786565e+01
3.407621635116e+01
3.534861317007e+01
3.786395744099e+01
3.790966864305e+01
3.528534304703e+01
3.407420852089e+01
3.396670405129e+01
3.438998028206e+01
3.409304378707e+01
3.407673133290e+01
3.534287604688e+01
3.784893881407e+01
3.397046415430e+01
3.439234257044e+01
3.408160443771e+01
3.405612049515e+01
3.541266748049e+01
3.781589691886e+01
3.396629095143e+01
3.439042539115e+01
3.409685239555e+01
3.409359168822e+01
3.439198845170e+01
3.396767426264e+01
3.524017659241e+01
3.444474462688e+01
3.523270316463e+01
3.445061391125e+01
3.523240689361e+01
3.446338058051e+01
3.522372772582e+01
3.443026692843e+01
5.215362720608e+01
3.405925277332e+01
3.405806774251e+01
3.404754567140e+01
3.405493623683e+01
4.188307513797e+01
4.186379765791e+01
4.180954323099e+01
4.196148545886e+01
3.439345197140e+01
3.561083952447e+01
3.801962520132e+01
3.806231217546e+01
3.555047186683e+01
3.439121664381e+01
3.428563924703e+01
3.468556136506e+01
3.440749173740e+01
3.439406826552e+01
3.560539340783e+01
3.800536587278e+01
3.428932483966e+01
3.468772521721e+01
3.439659903549e+01
3.437463888062e+01
3.567201451410e+01
3.797551885040e+01
3.428542243059e+01
3.468588582474e+01
3.441131325462e+01
3.440812848163e+01
3.468750507370e+01
3.428663178988e+01
3.550452679754e+01
3.474295406590e+01
3.549724660376e+01
3.474810738754e+01
3.549655223256e+01
3.476089658380e+01
3.548845444549e+01
3.472911275188e+01
5.213945287333e+01
3.433384460720e+01
3.433253008706e+01
3.432215325539e+01
3.432937521934e+01
4.192181994538e+01
4.190397616658e+01
4.185997590529e+01
4.198370873083e+01
3.467196730415e+01
3.586915916542e+01
3.822051196159e+01
3.826357638494e+01
3.580990302116e+01
3.467022664338e+01
3.457070063369e+01
3.497360686691e+01
3.468906919773e+01
3.467236059833e+01
3.586386509939e+01
3.820665562573e+01
3.457418954804e+01
3.497582975180e+01
3.467827903308e+01
3.465289949740e+01
3.592934382190e+01
3.817560323446e+01
3.457021056645e+01
3.497406297334e+01
3.469261393795e+01
3.468953694871e+01
3.497548471630e+01
3.457159579599e+01
3.577212511976e+01
3.502160480753e+01
3.576512630055e+01
3.502751721597e+01
3.576500986888e+01
3.503903133637e+01
3.575678453698e+01
3.500792398509e+01
5.156321669710e+01
3.419998707043e+01
3.419862650728e+01
3.418844943132e+01
3.419545129914e+01
4.159015869956e+01
4.157370588741e+01
4.153209348337e+01
4.164960920847e+01
3.453678108601e+01
3.571508890668e+01
3.801071827523e+01
3.805302370736e+01
3.565721131075e+01
3.453514291296e+01
3.443880921815e+01
3.483990458895e+01
3.455492968351e+01
3.453710138867e+01
3.570996883485e+01
3.799750434962e+01
3.444223688896e+01
3.484211662971e+01
3.454427178402e+01
3.451794750217e+01
3.577400923273e+01
3.796700104839e+01
3.443828274994e+01
3.484042114757e+01
3.455834381858e+01
3.455532723965e+01
3.484175165105e+01
3.443968236174e+01
3.562500555298e+01
3.488369704730e+01
3.561810436897e+01
3.488992198037e+01
3.561809435080e+01
3.490077835013e+01
3.560999499590e+01
3.487019811090e+01
5.101679731182e+01
3.395496616422e+01
3.395362443090e+01
3.394362425556e+01
3.395050565294e+01
4.117193141590e+01
4.115646752983e+01
4.111561081977e+01
4.123122640729e+01
3.428570197862e+01
3.544183526911e+01
3.768659674944e+01
3.772796383141e+01
3.538527681173e+01
3.428401527524e+01
3.418957467407e+01
3.458372938726e+01
3.430364299943e+01
3.428602201292e+01
3.543685527510e+01
3.767387080686e+01
3.419296351496e+01
3.458590191102e+01
3.429318662315e+01
3.426732390762e+01
3.549944507804e+01
3.764413316469e+01
3.418909404707e+01
3.458425534667e+01
3.430698765336e+01
3.430402104291e+01
3.458554758050e+01
3.419044289513e+01
3.535507490497e+01
3.462644970081e+01
3.534827116340e+01
3.463261658447e+01
3.534820833230e+01
3.464320533220e+01
3.534030785203e+01
3.461319203294e+01
5.049314986061e+01
3.370910617612e+01
3.370778733014e+01
3.369792855963e+01
3.370472869806e+01
4.078698781509e+01
4.077226930927e+01
4.073168407015e+01
4.084667791335e+01
3.403422748269e+01
3.517174197915e+01
3.737510783224e+01
3.741565738282e+01
3.511626925744e+01
3.403247629542e+01
3.393940138142e+01
3.432718497086e+01
3.405182460490e+01
3.403455779749e+01
3.516687491650e+01
3.736277250337e+01
3.394276210797e+01
3.432932005215e+01
3.404154271662e+01
3.401625914195e+01
3.522826280529e+01
3.733373045492e+01
3.393897112136e+01
3.432771192201e+01
3.405512156259e+01
3.405219334647e+01
3.432898035371e+01
3.394026937174e+01
3.508728712932e+01
3.436946015046e+01
3.508056012295e+01
3.437553038058e+01
3.508042681731e+01
3.438595273454e+01
3.507270327654e+01
3.435640834316e+01
5.004292485453e+01
3.349934987872e+01
3.349805721308e+01
3.348831037468e+01
3.349506322446e+01
4.046659555823e+01
4.045241403474e+01
4.041188342631e+01
4.052679837950e+01
3.381922544850e+01
3.494088866755e+01
3.711095965498e+01
3.715082245025e+01
3.488629470452e+01
3.381740690871e+01
3.372531227570e+01
3.410715626924e+01
3.383638690219e+01
3.381957237150e+01
3.493610832021e+01
3.709891618180e+01
3.372864952900e+01
3.410925697378e+01
3.382625807453e+01
3.380161867444e+01
3.499651289789e+01
3.707045978379e+01
3.372493046212e+01
3.410767765742e+01
3.383965105063e+01
3.383675378665e+01
3.410893295216e+01
3.372618183568e+01
3.485780921284e+01
3.414944458251e+01
3.485114774213e+01
3.415538686787e+01
3.485094034119e+01
3.416572171632e+01
3.484336970201e+01
3.413657212925e+01
4.967834552737e+01
3.331651838864e+01
3.331525347506e+01
3.330558540614e+01
3.331232582376e+01
4.020442699025e+01
4.019056038444e+01
4.014984326015e+01
4.026528749596e+01
3.363173248857e+01
3.474085017695e+01
3.688655205298e+01
3.692587379015e+01
3.468690637720e+01
3.362984512964e+01
3.353832466343e+01
3.391491163000e+01
3.364839253938e+01
3.363210139126e+01
3.473612940849e+01
3.687469955015e+01
3.354164442050e+01
3.391698225486e+01
3.363838997445e+01
3.361442792351e+01
3.479579482048e+01
3.684671186510e+01
3.353798823095e+01
3.391542183217e+01
3.365163949690e+01
3.364876437859e+01
3.391667438952e+01
3.353919781641e+01
3.465824760044e+01
3.395764012894e+01
3.465163743679e+01
3.396343193087e+01
3.465135405893e+01
3.397375602018e+01
3.464390804601e+01
3.394491371597e+01
4.939674317568e+01
3.308703575533e+01
3.308580899746e+01
3.307616762797e+01
3.308295571414e+01
3.994333871107e+01
3.992942889190e+01
3.988789691366e+01
4.000550245452e+01
3.339791968282e+01
3.449920337091e+01
3.663392805125e+01
3.667288675560e+01
3.444557993494e+01
3.339593216754e+01
3.330418511639e+01
3.367599287104e+01
3.341381970529e+01
3.339832906655e+01
3.449450242690e+01
3.662212353449e+01
3.330750358346e+01
3.367803533828e+01
3.340391092507e+01
3.338086703022e+01
3.455377333551e+01
3.659449053179e+01
3.330390500044e+01
3.367647752871e+01
3.341708328108e+01
3.341421391389e+01
3.367775001791e+01
3.330506847368e+01
3.441544746810e+01
3.372021051184e+01
3.440886203441e+01
3.372577586627e+01
3.440847132320e+01
3.373625054580e+01
3.440112193372e+01
3.370758325740e+01
4.917762245463e+01
3.271544017947e+01
3.271432121286e+01
3.270470863490e+01
3.271156116743e+01
3.959172201139e+01
3.957678191519e+01
3.953169566865e+01
3.965864997978e+01
3.301790360135e+01
3.411073234882e+01
3.624407605369e+01
3.628243551022e+01
3.405726461226e+01
3.301566574539e+01
3.292199172378e+01
3.328468670335e+01
3.303165511834e+01
3.301843247617e+01
3.410601556515e+01
3.623213864842e+01
3.292535245138e+01
3.328666489323e+01
3.302188709191e+01
3.300127850734e+01
3.416501670190e+01
3.620527061024e+01
3.292186255343e+01
3.328507879993e+01
3.303502697630e+01
3.303214090387e+01
3.328644158567e+01
3.292290400139e+01
3.402206473067e+01
3.333386278694e+01
3.401548248885e+01
3.333882952253e+01
3.401480269633e+01
3.334988376010e+01
3.400761273245e+01
3.332135546207e+01
4.902652059841e+01
3.267140923519e+01
3.267033063760e+01
3.266074706204e+01
3.266763191009e+01
3.952311875092e+01
3.950800889634e+01
3.946222344586e+01
3.959099205319e+01
3.296972658240e+01
3.405533988750e+01
3.617972408381e+01
3.621777927684e+01
3.400213365461e+01
3.296740042103e+01
3.287344991634e+01
3.323153674148e+01
3.298271602936e+01
3.297029517198e+01
3.405063336252e+01
3.616780558927e+01
3.287681003422e+01
3.323348815775e+01
3.297303587082e+01
3.295332806741e+01
3.410930277326e+01
3.614122760436e+01
3.287337320115e+01
3.323190073591e+01
3.298610734429e+01
3.298322736957e+01
3.323328573719e+01
3.287436978260e+01
3.396530657190e+01
3.328222946937e+01
3.395875114087e+01
3.328696874908e+01
3.395797391062e+01
3.329818122588e+01
3.395086849923e+01
3.326981380481e+01
4.897919030264e+01
3.264522151611e+01
3.264419634316e+01
3.263462856950e+01
3.264165679102e+01
3.946666245923e+01
3.945107005548e+01
3.940390084789e+01
3.953619491803e+01
3.293659339495e+01
3.400918348519e+01
3.612003359625e+01
3.615757267906e+01
3.395634716058e+01
3.293416392187e+01
3.284004249586e+01
3.319024530215e+01
3.294844782969e+01
3.293721723804e+01
3.400448507322e+01
3.610803433680e+01
3.284337478774e+01
3.319216095492e+01
3.293892124856e+01
3.292051885405e+01
3.406266382383e+01
3.608192206807e+01
3.284002569661e+01
3.319057173522e+01
3.295184774664e+01
3.294898229737e+01
3.319198019987e+01
3.284097371573e+01
3.391643122395e+01
3.324311962042e+01
3.390994381934e+01
3.324748940742e+01
3.390903963063e+01
3.325894302908e+01
3.390205299693e+01
3.323087864996e+01
4.895333719587e+01
3.254708527348e+01
3.254614463031e+01
3.253679073505e+01
3.254338329887e+01
3.930773231068e+01
3.929165821119e+01
3.924168465465e+01
3.938147228180e+01
3.283393434981e+01
3.389704835523e+01
3.598310049189e+01
3.601969887195e+01
3.384495301427e+01
3.283133870223e+01
3.273672490097e+01
3.308218968753e+01
3.284462069938e+01
3.283462521814e+01
3.389245112038e+01
3.597144535812e+01
3.274015849352e+01
3.308405613682e+01
3.283521388619e+01
3.281819502340e+01
3.394981148058e+01
3.594650006169e+01
3.273687413797e+01
3.308245525313e+01
3.284808627277e+01
3.284521604780e+01
3.308389922144e+01
3.273765786398e+01
3.380550778305e+01
3.313676342451e+01
3.379902665965e+01
3.314094622642e+01
3.379791756513e+01
3.315245763175e+01
3.379108596380e+01
3.312458132449e+01
4.891043118298e+01
3.210424559220e+01
3.210364986801e+01
3.209361283045e+01
3.210073383331e+01
3.917895001759e+01
3.916325696389e+01
3.911619440692e+01
3.924833030043e+01
3.238611162680e+01
3.348276852991e+01
3.568528887941e+01
3.572449464063e+01
3.342773882117e+01
3.238275808467e+01
3.227992044156e+01
3.262087832975e+01
3.239311141586e+01
3.238713643401e+01
3.347773192908e+01
3.567243685228e+01
3.228369473161e+01
3.262286883069e+01
3.238361532772e+01
3.237037789146e+01
3.353766126131e+01
3.564437446917e+01
3.228048565891e+01
3.262102088113e+01
3.239682051651e+01
3.239384719280e+01
3.262261072647e+01
3.228087579710e+01
3.337171853159e+01
3.268889090619e+01
3.336513621137e+01
3.269190837116e+01
3.336358727804e+01
3.270521648833e+01
3.335653343676e+01
3.267633768200e+01
4.880717157805e+01
3.110786574783e+01
3.110737188368e+01
3.110046233553e+01
3.110604168511e+01
3.678258601835e+01
3.675185148218e+01
3.666806090510e+01
3.689236193552e+01
3.129248275690e+01
3.201201710921e+01
3.359123499876e+01
3.361230766666e+01
3.197218920619e+01
3.129159850566e+01
3.122563497430e+01
3.144370513924e+01
3.129730286358e+01
3.129312748297e+01
3.200830187579e+01
3.357828129443e+01
3.122773055550e+01
3.144527467269e+01
3.129108071294e+01
3.128005017310e+01
3.205153174887e+01
3.356769993985e+01
3.122572847254e+01
3.144393743314e+01
3.129947921177e+01
3.129764728641e+01
3.144484911274e+01
3.122634649370e+01
3.191371755615e+01
3.148765989574e+01
3.190955846850e+01
3.148914839391e+01
3.190859458969e+01
3.149855848785e+01
3.190350777494e+01
3.147976937861e+01
4.750949512295e+01
3.081161887961e+01
3.081113547110e+01
3.080655218703e+01
3.080991470350e+01
3.305582366711e+01
3.306825684646e+01
3.311854204752e+01
3.298831673922e+01
3.095040742327e+01
3.144143665385e+01
3.234196650890e+01
3.236777061924e+01
3.141839417348e+01
3.094895964983e+01
3.090846766829e+01
3.107647858553e+01
3.095840782673e+01
3.095046056248e+01
3.143925750475e+01
3.233865505515e+01
3.090991358966e+01
3.107728754107e+01
3.095400029687e+01
3.094374963622e+01
3.146450710577e+01
3.231276265589e+01
3.090807991930e+01
3.107657185289e+01
3.095988448568e+01
3.095857345319e+01
3.107717747136e+01
3.090863307868e+01
3.141296617116e+01
3.109545334285e+01
3.141040449725e+01
3.109813399080e+01
3.141111469674e+01
3.110235813809e+01
3.140757161970e+01
3.108960482369e+01
3.138678507937e+01
3.052104078121e+01
3.052042408549e+01
3.051853540896e+01
3.051926466550e+01
3.137208553281e+01
3.138316811763e+01
3.140303403908e+01
3.135549869551e+01
3.061631148118e+01
3.089646877943e+01
3.127701602031e+01
3.128825357863e+01
3.088722822367e+01
3.061542321099e+01
3.059735828526e+01
3.071369034855e+01
3.062531535770e+01
3.061614806711e+01
3.089587600608e+01
3.127877448300e+01
3.059832540411e+01
3.071405005430e+01
3.062255963927e+01
3.061313949560e+01
3.090681687857e+01
3.126932439658e+01
3.059719974047e+01
3.071399732133e+01
3.062607566231e+01
3.062532202313e+01
3.071420733333e+01
3.059756691949e+01
3.091360899371e+01
3.071171666182e+01
3.091159974594e+01
3.071503756403e+01
3.091171745690e+01
3.071551893049e+01
3.091030874929e+01
3.070824846830e+01
3.176671938570e+01
3.025362417343e+01
3.025306582691e+01
3.025274087252e+01
3.025210590799e+01
3.067532001819e+01
3.067730435267e+01
3.068015250777e+01
3.067431738670e+01
3.031395442131e+01
3.045368775249e+01
3.060714500800e+01
3.061110173045e+01
3.044997257140e+01
3.031428957677e+01
3.030945950600e+01
3.038096993471e+01
3.032128516335e+01
3.031359823060e+01
3.045367118429e+01
3.060827062658e+01
3.030980237939e+01
3.038107154012e+01
3.031974789018e+01
3.031160367693e+01
3.045877386366e+01
3.060618119167e+01
3.030904873221e+01
3.038113549559e+01
3.032162668487e+01
3.032125876218e+01
3.038119877112e+01
3.030951517356e+01
3.047563919162e+01
3.037005269024e+01
3.047463494555e+01
3.037281092513e+01
3.047512418699e+01
3.037176119751e+01
3.047431157050e+01
3.036824651773e+01
3.062192810744e+01
3.002373648698e+01
3.002326206299e+01
3.002309826529e+01
3.002314796602e+01
3.020190124144e+01
3.020289606288e+01
3.020505154897e+01
3.019997512077e+01
3.005783841117e+01
3.012177161458e+01
3.018346635279e+01
3.018527833257e+01
3.012017617195e+01
3.005842450960e+01
3.005918072827e+01
3.009855427493e+01
3.006348333419e+01
3.005749199945e+01
3.012181594671e+01
3.018388297250e+01
3.005911021464e+01
3.009859764701e+01
3.006267716836e+01
3.005635981520e+01
3.012428606740e+01
3.018292946418e+01
3.005866621947e+01
3.009871454904e+01
3.006350854044e+01
3.006335833602e+01
3.009867082889e+01
3.005920148959e+01
3.013659829833e+01
3.008763022978e+01
3.013616678433e+01
3.008945725454e+01
3.013674821089e+01
3.008836801264e+01
3.013627016648e+01
3.008685420534e+01
3.021302642025e+01
2.953038207263e+01
2.953030580117e+01
2.953027164408e+01
2.953055042833e+01
2.952773328170e+01
2.952767808689e+01
2.952752175373e+01
2.952796125924e+01
2.953103871993e+01
2.953032874985e+01
2.952839763576e+01
2.952838127978e+01
2.953037754546e+01
2.953113128652e+01
2.953172150268e+01
2.953240771241e+01
2.953150521056e+01
2.953099381052e+01
2.953032891454e+01
2.952839351046e+01
2.953161842675e+01
2.953238215778e+01
2.953147805600e+01
2.953103685198e+01