# vtk DataFile Version 3.0
Unstructured Grid from OpenGeoSys
ASCII
DATASET UNSTRUCTURED_GRID
FIELD TimesAndCycles 2
TIME 1 1 double
3.600000000000e+03
CYLCE 1 1 long
1
POINTS 1394 double
0.000000000000e+00 0.000000000000e+00 0.000000000000e+00
5.000000000000e+00 0.000000000000e+00 0.000000000000e+00
5.000000000000e+00 5.000000000000e+00 0.000000000000e+00
0.000000000000e+00 5.000000000000e+00 0.000000000000e+00
2.244234909000e+00 2.244234909000e+00 0.000000000000e+00
2.755765091000e+00 2.244234909000e+00 0.000000000000e+00
2.755765091000e+00 2.755765091000e+00 0.000000000000e+00
2.244234909000e+00 2.755765091000e+00 0.000000000000e+00
7.141316008320e-01 7.141316008320e-01 0.000000000000e+00
1.314642334730e+00 1.314642334730e+00 0.000000000000e+00
1.819609643610e+00 1.819609643610e+00 0.000000000000e+00
1.819609643610e+00 3.180390356390e+00 0.000000000000e+00
1.314642334740e+00 3.685357665260e+00 0.000000000000e+00
7.141316008360e-01 4.285868399160e+00 0.000000000000e+00
0.000000000000e+00 3.750000000000e+00 0.000000000000e+00
0.000000000000e+00 2.500000000000e+00 0.000000000000e+00
0.000000000000e+00 1.250000000000e+00 0.000000000000e+00
4.285868399170e+00 7.141316008320e-01 0.000000000000e+00
3.685357665270e+00 1.314642334730e+00 0.000000000000e+00
3.180390356390e+00 1.819609643610e+00 0.000000000000e+00
1.250000000000e+00 0.000000000000e+00 0.000000000000e+00
2.500000000000e+00 0.000000000000e+00 0.000000000000e+00
3.750000000000e+00 0.000000000000e+00 0.000000000000e+00
4.285868399170e+00 4.285868399170e+00 0.000000000000e+00
3.685357665270e+00 3.685357665270e+00 0.000000000000e+00
3.180390356390e+00 3.180390356390e+00 0.000000000000e+00
5.000000000000e+00 1.250000000000e+00 0.000000000000e+00
5.000000000000e+00 2.500000000000e+00 0.000000000000e+00
5.000000000000e+00 3.750000000000e+00 0.000000000000e+00
3.750000000000e+00 5.000000000000e+00 0.000000000000e+00
2.500000000000e+00 5.000000000000e+00 0.000000000000e+00
1.250000000000e+00 5.000000000000e+00 0.000000000000e+00
9.560744151940e-01 2.677827143250e+00 0.000000000000e+00
6.659597640160e-01 1.438876720610e+00 0.000000000000e+00
2.309219871940e+00 9.522638293400e-01 0.000000000000e+00
3.458157207860e+00 6.354750772000e-01 0.000000000000e+00
4.043925584810e+00 2.322172856750e+00 0.000000000000e+00
4.334040235980e+00 3.561123279390e+00 0.000000000000e+00
2.318530875810e+00 4.048536535600e+00 0.000000000000e+00
3.552396921680e+00 4.370927842320e+00 0.000000000000e+00
2.500000000000e+00 2.500000000000e+00 0.000000000000e+00
0.000000000000e+00 0.000000000000e+00 -5.000000000000e-01
5.000000000000e+00 0.000000000000e+00 -5.000000000000e-01
5.000000000000e+00 5.000000000000e+00 -5.000000000000e-01
0.000000000000e+00 5.000000000000e+00 -5.000000000000e-01
2.244234909000e+00 2.244234909000e+00 -5.000000000000e-01
2.755765091000e+00 2.244234909000e+00 -5.000000000000e-01
2.755765091000e+00 2.755765091000e+00 -5.000000000000e-01
2.244234909000e+00 2.755765091000e+00 -5.000000000000e-01
7.141316008320e-01 7.141316008320e-01 -5.000000000000e-01
1.314642334730e+00 1.314642334730e+00 -5.000000000000e-01
1.819609643610e+00 1.819609643610e+00 -5.000000000000e-01
1.819609643610e+00 3.180390356390e+00 -5.000000000000e-01
1.314642334740e+00 3.685357665260e+00 -5.000000000000e-01
7.141316008360e-01 4.285868399160e+00 -5.000000000000e-01
0.000000000000e+00 3.750000000000e+00 -5.000000000000e-01
0.000000000000e+00 2.500000000000e+00 -5.000000000000e-01
0.000000000000e+00 1.250000000000e+00 -5.000000000000e-01
4.285868399170e+00 7.141316008320e-01 -5.000000000000e-01
3.685357665270e+00 1.314642334730e+00 -5.000000000000e-01
3.180390356390e+00 1.819609643610e+00 -5.000000000000e-01
1.250000000000e+00 0.000000000000e+00 -5.000000000000e-01
2.500000000000e+00 0.000000000000e+00 -5.000000000000e-01
3.750000000000e+00 0.000000000000e+00 -5.000000000000e-01
4.285868399170e+00 4.285868399170e+00 -5.000000000000e-01
3.685357665270e+00 3.685357665270e+00 -5.000000000000e-01
3.180390356390e+00 3.180390356390e+00 -5.000000000000e-01
5.000000000000e+00 1.250000000000e+00 -5.000000000000e-01
5.000000000000e+00 2.500000000000e+00 -5.000000000000e-01
5.000000000000e+00 3.750000000000e+00 -5.000000000000e-01
3.750000000000e+00 5.000000000000e+00 -5.000000000000e-01
2.500000000000e+00 5.000000000000e+00 -5.000000000000e-01
1.250000000000e+00 5.000000000000e+00 -5.000000000000e-01
9.560744151940e-01 2.677827143250e+00 -5.000000000000e-01
6.659597640160e-01 1.438876720610e+00 -5.000000000000e-01
2.309219871940e+00 9.522638293400e-01 -5.000000000000e-01
3.458157207860e+00 6.354750772000e-01 -5.000000000000e-01
4.043925584810e+00 2.322172856750e+00 -5.000000000000e-01
4.334040235980e+00 3.561123279390e+00 -5.000000000000e-01
2.318530875810e+00 4.048536535600e+00 -5.000000000000e-01
3.552396921680e+00 4.370927842320e+00 -5.000000000000e-01
2.500000000000e+00 2.500000000000e+00 -5.000000000000e-01
0.000000000000e+00 0.000000000000e+00 -1.000000000000e+00
5.000000000000e+00 0.000000000000e+00 -1.000000000000e+00
5.000000000000e+00 5.000000000000e+00 -1.000000000000e+00
0.000000000000e+00 5.000000000000e+00 -1.000000000000e+00
2.244234909000e+00 2.244234909000e+00 -1.000000000000e+00
2.755765091000e+00 2.244234909000e+00 -1.000000000000e+00
2.755765091000e+00 2.755765091000e+00 -1.000000000000e+00
2.244234909000e+00 2.755765091000e+00 -1.000000000000e+00
7.141316008320e-01 7.141316008320e-01 -1.000000000000e+00
1.314642334730e+00 1.314642334730e+00 -1.000000000000e+00
1.819609643610e+00 1.819609643610e+00 -1.000000000000e+00
1.819609643610e+00 3.180390356390e+00 -1.000000000000e+00
1.314642334740e+00 3.685357665260e+00 -1.000000000000e+00
7.141316008360e-01 4.285868399160e+00 -1.000000000000e+00
0.000000000000e+00 3.750000000000e+00 -1.000000000000e+00
0.000000000000e+00 2.500000000000e+00 -1.000000000000e+00
0.000000000000e+00 1.250000000000e+00 -1.000000000000e+00
4.285868399170e+00 7.141316008320e-01 -1.000000000000e+00
3.685357665270e+00 1.314642334730e+00 -1.000000000000e+00
3.180390356390e+00 1.819609643610e+00 -1.000000000000e+00
1.250000000000e+00 0.000000000000e+00 -1.000000000000e+00
2.500000000000e+00 0.000000000000e+00 -1.000000000000e+00
3.750000000000e+00 0.000000000000e+00 -1.000000000000e+00
4.285868399170e+00 4.285868399170e+00 -1.000000000000e+00
3.685357665270e+00 3.685357665270e+00 -1.000000000000e+00
3.180390356390e+00 3.180390356390e+00 -1.000000000000e+00
5.000000000000e+00 1.250000000000e+00 -1.000000000000e+00
5.000000000000e+00 2.500000000000e+00 -1.000000000000e+00
5.000000000000e+00 3.750000000000e+00 -1.000000000000e+00
3.750000000000e+00 5.000000000000e+00 -1.000000000000e+00
2.500000000000e+00 5.000000000000e+00 -1.000000000000e+00
1.250000000000e+00 5.000000000000e+00 -1.000000000000e+00
9.560744151940e-01 2.677827143250e+00 -1.000000000000e+00
6.659597640160e-01 1.438876720610e+00 -1.000000000000e+00
2.309219871940e+00 9.522638293400e-01 -1.000000000000e+00
3.458157207860e+00 6.354750772000e-01 -1.000000000000e+00
4.043925584810e+00 2.322172856750e+00 -1.000000000000e+00
4.334040235980e+00 3.561123279390e+00 -1.000000000000e+00
2.318530875810e+00 4.048536535600e+00 -1.000000000000e+00
3.552396921680e+00 4.370927842320e+00 -1.000000000000e+00
2.500000000000e+00 2.500000000000e+00 -1.000000000000e+00
0.000000000000e+00 0.000000000000e+00 -3.000000000000e+00
5.000000000000e+00 0.000000000000e+00 -3.000000000000e+00
5.000000000000e+00 5.000000000000e+00 -3.000000000000e+00
0.000000000000e+00 5.000000000000e+00 -3.000000000000e+00
2.244234909000e+00 2.244234909000e+00 -3.000000000000e+00
2.755765091000e+00 2.244234909000e+00 -3.000000000000e+00
2.755765091000e+00 2.755765091000e+00 -3.000000000000e+00
2.244234909000e+00 2.755765091000e+00 -3.000000000000e+00
7.141316008320e-01 7.141316008320e-01 -3.000000000000e+00
1.314642334730e+00 1.314642334730e+00 -3.000000000000e+00
1.819609643610e+00 1.819609643610e+00 -3.000000000000e+00
1.819609643610e+00 3.180390356390e+00 -3.000000000000e+00
1.314642334740e+00 3.685357665260e+00 -3.000000000000e+00
7.141316008360e-01 4.285868399160e+00 -3.000000000000e+00
0.000000000000e+00 3.750000000000e+00 -3.000000000000e+00
0.000000000000e+00 2.500000000000e+00 -3.000000000000e+00
0.000000000000e+00 1.250000000000e+00 -3.000000000000e+00
4.285868399170e+00 7.141316008320e-01 -3.000000000000e+00
3.685357665270e+00 1.314642334730e+00 -3.000000000000e+00
3.180390356390e+00 1.819609643610e+00 -3.000000000000e+00
1.250000000000e+00 0.000000000000e+00 -3.000000000000e+00
2.500000000000e+00 0.000000000000e+00 -3.000000000000e+00
3.750000000000e+00 0.000000000000e+00 -3.000000000000e+00
4.285868399170e+00 4.285868399170e+00 -3.000000000000e+00
3.685357665270e+00 3.685357665270e+00 -3.000000000000e+00
3.180390356390e+00 3.180390356390e+00 -3.000000000000e+00
5.000000000000e+00 1.250000000000e+00 -3.000000000000e+00
5.000000000000e+00 2.500000000000e+00 -3.000000000000e+00
5.000000000000e+00 3.750000000000e+00 -3.000000000000e+00
3.750000000000e+00 5.000000000000e+00 -3.000000000000e+00
2.500000000000e+00 5.000000000000e+00 -3.000000000000e+00
1.250000000000e+00 5.000000000000e+00 -3.000000000000e+00
9.560744151940e-01 2.677827143250e+00 -3.000000000000e+00
6.659597640160e-01 1.438876720610e+00 -3.000000000000e+00
2.309219871940e+00 9.522638293400e-01 -3.000000000000e+00
3.458157207860e+00 6.354750772000e-01 -3.000000000000e+00
4.043925584810e+00 2.322172856750e+00 -3.000000000000e+00
4.334040235980e+00 3.561123279390e+00 -3.000000000000e+00
2.318530875810e+00 4.048536535600e+00 -3.000000000000e+00
3.552396921680e+00 4.370927842320e+00 -3.000000000000e+00
2.500000000000e+00 2.500000000000e+00 -3.000000000000e+00
0.000000000000e+00 0.000000000000e+00 -5.000000000000e+00
5.000000000000e+00 0.000000000000e+00 -5.000000000000e+00
5.000000000000e+00 5.000000000000e+00 -5.000000000000e+00
0.000000000000e+00 5.000000000000e+00 -5.000000000000e+00
2.244234909000e+00 2.244234909000e+00 -5.000000000000e+00
[...]
POINT_DATA 1394
SCALARS TEMPERATURE1 double 1
LOOKUP_TABLE default
1.000000000000e+01
1.000000000000e+01
1.000000000000e+01
1.000000000000e+01
1.000000000000e+01
1.000000000000e+01
1.000000000000e+01
1.000000000000e+01
1.000000000000e+01
1.000000000000e+01
1.000000000000e+01
1.000000000000e+01
1.000000000000e+01
1.000000000000e+01
1.000000000000e+01
1.000000000000e+01
1.000000000000e+01
1.000000000000e+01
1.000000000000e+01
1.000000000000e+01
1.000000000000e+01
1.000000000000e+01
1.000000000000e+01
1.000000000000e+01
1.000000000000e+01
1.000000000000e+01
1.000000000000e+01
1.000000000000e+01
1.000000000000e+01
1.000000000000e+01
1.000000000000e+01
1.000000000000e+01
1.000000000000e+01
1.000000000000e+01
1.000000000000e+01
1.000000000000e+01
1.000000000000e+01
1.000000000000e+01
1.000000000000e+01
1.000000000000e+01
1.000000000000e+01
1.858737808975e+01
1.858679272187e+01
1.857981618619e+01
1.858391155784e+01
2.179991621670e+01
2.184541954326e+01
2.196098079167e+01
2.166449876511e+01
1.881599700998e+01
1.958777928115e+01
2.103216639016e+01
2.107720802898e+01
1.955077944979e+01
1.881443291024e+01
1.875650729664e+01
1.902809908338e+01
1.883228744762e+01
1.881586814544e+01
1.958398853069e+01
2.102494852124e+01
1.875875762073e+01
1.902975574060e+01
1.882519802105e+01
1.880422566885e+01
1.962417355221e+01
2.097424056636e+01
1.875557472649e+01
1.902837951417e+01
1.883393613302e+01
1.883221012683e+01
1.902899852036e+01
1.875644127249e+01
1.954050898497e+01
1.904850880283e+01
1.953699403675e+01
1.905355162276e+01
1.953957254144e+01
1.905932819918e+01
1.953326921830e+01
1.903949125080e+01
1.926750630927e+01
2.758210765683e+01
2.758006508841e+01
2.756814506467e+01
2.757289336795e+01
3.691061971917e+01
3.683733738138e+01
3.664282717829e+01
3.717224318423e+01
2.805732015800e+01
2.959828486189e+01
3.215785952810e+01
3.219036531718e+01
2.953483262551e+01
2.805299684020e+01
2.793800331664e+01
2.851162624791e+01
2.809325639893e+01
2.805826450520e+01
2.959348920844e+01
3.215804413610e+01
2.794441923670e+01
2.851498992896e+01
2.807912321099e+01
2.803674032470e+01
2.966439735587e+01
3.216028187354e+01
2.794018680399e+01
2.851414877721e+01
2.809760537907e+01
2.809380866778e+01
2.851498238437e+01
2.794013576245e+01
2.958092576022e+01
2.854060619428e+01
2.956890751799e+01
2.855329031981e+01
2.956381056071e+01
2.856205726226e+01
2.955673768597e+01
2.852198309180e+01
5.251439908029e+01
3.252583633980e+01
3.252369850252e+01
3.251636880203e+01
3.251110091214e+01
4.131142491728e+01
4.124500030528e+01
4.110506607485e+01
4.147716864479e+01
3.305489576761e+01
3.461106178456e+01
3.704581069937e+01
3.708118840934e+01
3.455058216960e+01
3.305385781902e+01
3.294698521374e+01
3.357748388981e+01
3.309385826526e+01
3.305451416402e+01
3.460809883897e+01
3.704359911243e+01
3.295341303694e+01
3.357997161094e+01
3.307925531585e+01
3.302990339407e+01
3.467888840321e+01
3.703925170582e+01
3.294769505411e+01
3.357854740209e+01
3.309922807540e+01
3.309514900618e+01
3.357996927018e+01
3.294803981339e+01
3.464872000102e+01
3.357657666100e+01
3.463806455040e+01
3.359304022937e+01
3.463671869698e+01
3.359654425059e+01
3.462768998054e+01
3.355646583389e+01
5.358925881553e+01
3.545378237572e+01
3.545149465390e+01
3.544415373301e+01
3.544165152186e+01
4.326353733997e+01
4.321070412365e+01
4.308871539413e+01
4.341742984296e+01
3.593287965300e+01
3.732997755113e+01
3.952314771851e+01
3.955580093182e+01
3.727543782802e+01
3.593216819718e+01
3.584060333170e+01
3.641054199095e+01
3.597203983607e+01
3.593241817479e+01
3.732695248464e+01
3.952147977245e+01
3.584595709713e+01
3.641294343463e+01
3.595873022596e+01
3.591050645179e+01
3.739065670667e+01
3.951594250766e+01
3.584083433593e+01
3.641191393000e+01
3.597633428163e+01
3.597281755232e+01
3.641294179101e+01
3.584169053543e+01
3.736341734718e+01
3.640326084110e+01
3.735365803295e+01
3.641854904641e+01
3.735267358091e+01
3.642149560881e+01
3.734468147709e+01
3.638562379400e+01
5.426241599937e+01
3.707760008368e+01
3.707549796849e+01
3.706857963609e+01
3.706626120986e+01
4.453018589796e+01
4.448460192754e+01
4.438138263417e+01
4.465980055078e+01
3.752838270217e+01
3.884845671251e+01
4.096983471128e+01
4.100284040935e+01
3.879555312014e+01
3.752811893153e+01
3.744119866136e+01
3.797579183870e+01
3.756457732896e+01
3.752788342982e+01
3.884533083866e+01
4.096638402656e+01
3.744607784269e+01
3.797805694397e+01
3.755199053096e+01
3.750662418514e+01
3.890695265595e+01
4.095713996012e+01
3.744112498762e+01
3.797693107848e+01
3.756859700077e+01
3.756532177431e+01
3.797797024428e+01
3.744210393029e+01
3.886951398984e+01
3.797048167743e+01
3.886059615911e+01
3.798456857285e+01
3.886024771995e+01
3.798778339137e+01
3.885230540875e+01
3.795393359076e+01
5.462302060980e+01
3.794050029585e+01
3.793850361605e+01
3.793154543723e+01
3.792977072880e+01
4.524651965200e+01
4.520843791091e+01
4.512097567573e+01
4.535850972373e+01
3.837679128680e+01
3.966097936352e+01
4.177856449289e+01
4.181308549687e+01
3.960799174819e+01
3.837685191184e+01
3.829246577135e+01
3.880808570875e+01
3.841184008004e+01
3.837627501509e+01
3.965755534932e+01
4.177344861698e+01
3.829703806382e+01
3.881038350023e+01
3.839957565361e+01
3.835507272687e+01
3.971890396510e+01
4.175989865152e+01
3.829214206457e+01
3.880915656257e+01
3.841556388032e+01
3.841246533732e+01
3.881014009416e+01
3.829325229878e+01
3.966949100771e+01
3.880407386340e+01
3.966109250295e+01
3.881744691692e+01
3.966130101026e+01
3.882104560453e+01
3.965320311018e+01
3.878816460540e+01
5.479040196468e+01
3.837037400480e+01
3.836839453796e+01
3.836198872338e+01
3.835980727075e+01
4.526920857726e+01
4.522468127590e+01
4.512221615786e+01
4.539850062363e+01
3.879003458655e+01
4.001885873819e+01
4.196884954738e+01
4.199845288792e+01
3.997036269518e+01
3.878955301219e+01
3.870840685101e+01
3.920713485485e+01
3.882381694099e+01
3.878961250453e+01
4.001608086530e+01
4.196661602383e+01
3.871302522409e+01
3.920921129067e+01
3.881210108955e+01
3.877019708225e+01
4.007270041850e+01
4.196013118258e+01
3.870848198812e+01
3.920825064300e+01
3.882761917307e+01
3.882454631761e+01
3.920922449459e+01
3.870932168650e+01
4.004337652307e+01
3.920222407753e+01
4.003488397294e+01
3.921542549523e+01
4.003421631286e+01
3.921831905432e+01
4.002707348929e+01
3.918677902610e+01
5.481251847025e+01
3.872935621736e+01
3.872742338623e+01
3.872065939831e+01
3.871943106110e+01
4.556910051169e+01
4.553356909566e+01
4.544967452164e+01
4.567823369850e+01
3.914110183347e+01
4.035502712320e+01
4.234125573072e+01
4.237360345045e+01
4.030539269077e+01
3.914089938641e+01
3.906115739663e+01
3.954869825886e+01
3.917462219419e+01
3.914065325035e+01
4.035182011000e+01
4.233720691679e+01
3.906549872267e+01
3.955088029602e+01
3.916302652509e+01
3.912098499524e+01
4.040927321047e+01
4.232503018743e+01
3.906093412912e+01
3.954980532620e+01
3.917811240623e+01
3.917517362022e+01
3.955070076509e+01
3.906197128279e+01
4.036568092906e+01
3.954499456721e+01
4.035759966557e+01
3.955767826793e+01
4.035756047582e+01
3.956108052454e+01
4.035009534893e+01
3.952997559955e+01
5.457262084311e+01
3.856324657227e+01
3.856130695733e+01
3.855441896958e+01
3.855344981709e+01
4.540234079642e+01
4.536894759236e+01
4.528940310045e+01
4.550686480227e+01
3.897471628761e+01
4.018879540142e+01
4.218811574723e+01
4.222121677589e+01
4.013876967812e+01
3.897458127230e+01
3.889510486164e+01
3.938188831602e+01
3.900842985220e+01
3.897425432140e+01
4.018548119279e+01
4.218366991846e+01
3.889939056264e+01
3.938410735412e+01
3.899682427020e+01
3.895446770781e+01
4.024327336471e+01
4.217009381472e+01
3.889480450906e+01
3.938300799929e+01
3.901184292938e+01
3.900892619313e+01
3.938387624054e+01
3.889589902612e+01
4.019664722408e+01
3.937811606401e+01
4.018863873538e+01
3.939075652580e+01
4.018875745876e+01
3.939424651936e+01
4.018119140729e+01
3.936315233785e+01
5.430156720290e+01
3.828812938262e+01
3.828619101497e+01
3.827919888568e+01
3.827841450459e+01
4.512230622813e+01
4.508968927352e+01
4.501122946009e+01
4.522615592659e+01
3.869918757936e+01
3.991384447747e+01
4.191712344196e+01
4.195045430773e+01
3.986370365468e+01
3.869900013584e+01
3.861947497364e+01
3.910581625565e+01
3.873297668641e+01
3.869874096900e+01
3.991048613880e+01
4.191267751219e+01
3.862376260963e+01
3.910806282997e+01
3.872137007025e+01
3.867897248943e+01
3.996833076204e+01
4.189871280743e+01
3.861918720965e+01
3.910696409662e+01
3.873635349051e+01
3.873344228373e+01
3.910781006874e+01
3.862027681215e+01
3.992073399909e+01
3.910232231838e+01
3.991272358947e+01
3.911493169553e+01
3.991283263765e+01
3.911848619290e+01
3.990526277638e+01
3.908737359307e+01
5.400789145357e+01
3.801052266789e+01
3.800858184645e+01
3.800149661962e+01
3.800085851289e+01
4.484524237941e+01
4.481296640955e+01
4.473467299325e+01
4.494943650880e+01
3.842173753512e+01
3.963835341074e+01
4.164477437858e+01
4.167822300503e+01
3.958813071276e+01
3.842147974029e+01
3.834178324651e+01
3.882846022988e+01
3.845562994171e+01
3.842130795201e+01
3.963497002270e+01
4.164042315293e+01
3.834608808107e+01
3.883072974360e+01
3.844401022322e+01
3.840156641831e+01
3.969285233668e+01
4.162633712295e+01
3.834152285936e+01
3.882963776578e+01
3.845898807665e+01
3.845607409798e+01
3.883046632157e+01
3.834259905877e+01
3.964496659371e+01
3.882520978887e+01
3.963692786968e+01
3.883781749438e+01
3.963699352344e+01
3.884141729812e+01
3.962943445432e+01
3.881024790266e+01
5.374458536839e+01
3.777208783985e+01
3.777014590497e+01
3.776298717193e+01
3.776246313943e+01
4.460535961786e+01
4.457321340460e+01
4.449469590135e+01
4.471027102188e+01
3.818334446039e+01
3.940143101459e+01
4.140900224063e+01
4.144248217258e+01
3.935118293936e+01
3.818301411004e+01
3.810315024309e+01
3.859006047649e+01
3.821730254353e+01
3.818293228775e+01
3.939803504205e+01
4.140477850758e+01
3.810747480439e+01
3.859234695262e+01
3.820567478620e+01
3.816323407009e+01
3.945590441944e+01
4.139071302482e+01
3.810292257485e+01
3.859126407745e+01
3.822064990764e+01
3.821773208319e+01
3.859207909928e+01
3.810398090058e+01
3.940803837066e+01
3.858705558831e+01
3.939996822925e+01
3.859966090215e+01
3.939997796199e+01
3.860329544818e+01
3.939244120264e+01
3.857208075348e+01
5.352438019914e+01
3.756392897277e+01
3.756198581281e+01
3.755476900947e+01
3.755432955178e+01
4.439594230435e+01
4.436368354850e+01
4.428447442654e+01
4.450204394247e+01
3.797528760711e+01
3.919486856411e+01
4.120215768499e+01
4.123558777808e+01
3.914463838051e+01
3.797487939106e+01
3.789481878089e+01
3.838208038425e+01
3.800929207301e+01
3.797489337481e+01
3.919147254119e+01
4.119810382983e+01
3.789916794672e+01
3.838437856178e+01
3.799765655019e+01
3.795525104728e+01
3.924929454062e+01
4.118421277292e+01
3.789463031717e+01
3.838330776183e+01
3.801263834001e+01
3.800971393620e+01
3.838411327475e+01
3.789566633742e+01
3.920180093106e+01
3.837931793812e+01
3.919369107306e+01
3.839192686012e+01
3.919362900097e+01
3.839558549208e+01
3.918612535606e+01
3.836432357371e+01
5.334465732867e+01
3.731292742969e+01
3.731097735289e+01
3.730369324576e+01
3.730331990734e+01
4.415634699160e+01
4.412339521697e+01
4.404214611208e+01
4.426525870355e+01
3.772537420193e+01
3.894953367360e+01
4.095744309949e+01
4.099071058650e+01
3.889931826746e+01
3.772484407476e+01
3.764429635072e+01
3.813326985736e+01
3.775948292137e+01
3.772500519306e+01
3.894615578273e+01
4.095371079381e+01
3.764869737154e+01
3.813557843245e+01
3.774781340918e+01
3.770543098325e+01
3.900395441776e+01
4.094034212892e+01
3.764417468673e+01
3.813452953004e+01
3.776285305759e+01
3.775990821362e+01
3.813533107814e+01
3.764517406348e+01
3.895762241554e+01
3.813082486257e+01
3.894942276986e+01
3.814347705974e+01
3.894922727150e+01
3.814715495915e+01
3.894177827164e+01
3.811576072894e+01
5.318248656181e+01
3.693467488718e+01
3.693272076758e+01
3.692546100265e+01
3.692493713408e+01
4.377725507957e+01
4.374061268244e+01
4.365091828852e+01
4.389611191024e+01
3.734829820922e+01
3.857692333157e+01
4.056416956397e+01
4.059616789146e+01
3.852734261677e+01
3.734746458227e+01
3.726602473052e+01
3.775767962308e+01
3.738232355337e+01
3.734799030130e+01
3.857371823238e+01
4.056150900588e+01
3.727057259391e+01
3.775996089155e+01
3.737064102201e+01
3.732873247929e+01
3.863089774929e+01
4.055075560772e+01
3.726611537654e+01
3.775898404703e+01
3.738581100349e+01
3.738280853185e+01
3.775980062259e+01
3.726697821298e+01
3.859051653453e+01
3.775577878031e+01
3.858209849577e+01
3.776853843470e+01
3.858147991270e+01
3.777211793343e+01
3.857426442474e+01
3.774056474009e+01
5.304313160243e+01
3.684395206646e+01
3.684200359878e+01
3.683474834296e+01
3.683420353921e+01
4.366821163248e+01
4.363097031879e+01
4.353943968940e+01
4.378956531837e+01
3.725709205774e+01
3.848500339811e+01
4.046332362783e+01
4.049496594444e+01
3.843568468974e+01
3.725615536948e+01
3.717457981300e+01
3.766604359719e+01
3.729104609263e+01
3.725680752682e+01
3.848184111756e+01
4.046099386171e+01
3.717916693839e+01
3.766832016950e+01
3.727937806716e+01
3.723768611155e+01
3.853873259429e+01
4.045088367854e+01
3.717473844360e+01
3.766736582446e+01
3.729455130255e+01
3.729154114562e+01
3.766818007144e+01
3.717555463700e+01
3.849999730446e+01
3.766438264567e+01
3.849152738756e+01
3.767714492231e+01
3.849078456980e+01
3.768070666084e+01
3.848365214360e+01
3.764915699112e+01
5.297534239514e+01
3.668827285563e+01
3.668631544189e+01
3.667901287093e+01
3.667854742998e+01
4.351344644135e+01
4.347447696006e+01
4.337922083075e+01
4.363903180016e+01
3.710105517192e+01
3.832874922641e+01
4.029766849532e+01
4.032874209351e+01
3.827968634915e+01
3.709998914397e+01
3.701824633710e+01
3.750980405899e+01
3.713499395417e+01
3.710079762661e+01
3.832565297268e+01
4.029573613412e+01
3.702287490355e+01
3.751207877060e+01
3.712334559698e+01
3.708182342301e+01
3.838226095826e+01
4.028673566059e+01
3.701848782086e+01
3.751115813818e+01
3.713852469027e+01
3.713549289092e+01
3.751196295416e+01
3.701925711248e+01
3.834545321966e+01
3.750836760454e+01
3.833691452116e+01
3.752114285025e+01
3.833599487260e+01
3.752467273669e+01
3.832896014251e+01
3.749311204717e+01
5.291336269751e+01
3.630150666871e+01
3.629953004365e+01
3.629235050378e+01
3.629121781538e+01
4.315120441763e+01
4.311028207648e+01
4.300917942348e+01
4.328459267229e+01
3.672317714535e+01
3.796866215850e+01
3.993246844826e+01
3.996283271757e+01
3.791982636156e+01
3.672196554502e+01
3.663948919614e+01
3.714219618777e+01
3.675800154011e+01
3.672292385319e+01
3.796573274966e+01
3.993147368246e+01
3.664435217377e+01
3.714449588233e+01
3.674618566297e+01
3.670382776058e+01
3.802224153450e+01
3.992426512495e+01
3.663990884824e+01
3.714359737051e+01
3.676162923037e+01
3.675852809891e+01
3.714438433809e+01
3.664052615725e+01
3.799357224355e+01
3.713890617457e+01
3.798480888778e+01
3.715221288979e+01
3.798368381067e+01
3.715534028573e+01
3.797668166504e+01
3.712329955932e+01
5.279630754654e+01
3.531268202525e+01
3.531106105251e+01
3.530297515050e+01
3.530247128706e+01
4.262197847083e+01
4.257706729007e+01
4.247230839795e+01
4.275681401286e+01
3.573411173984e+01
3.703625802579e+01
3.914564956425e+01
3.917866063912e+01
3.698377852473e+01
3.573181932719e+01
3.563821542227e+01
3.614318259114e+01
3.576506074020e+01
3.573427582304e+01
3.703288452484e+01
3.914404963799e+01
3.564360268084e+01
3.614563194322e+01
3.575299670283e+01
3.571481409019e+01
3.709271368202e+01
3.913495638907e+01
3.563924138039e+01
3.614450123521e+01
3.576910989503e+01
3.576580800348e+01
3.614548046169e+01
3.563934866815e+01
3.704216475840e+01
3.615590557226e+01
3.703303537711e+01
3.616805602490e+01
3.703109326981e+01
3.617325763280e+01
3.702390538447e+01
3.613957257024e+01
5.255552139940e+01
3.346072220340e+01
3.345965363845e+01
3.345346521158e+01
3.345510608608e+01
3.963478554889e+01
3.958524375921e+01
3.945905776737e+01
3.979677934088e+01
3.373166761372e+01
3.460444528980e+01
3.622526736236e+01
3.624343240481e+01
3.456375342320e+01
3.373131213299e+01
3.366658828426e+01
3.398601442700e+01
3.374985438259e+01
3.373193457358e+01
3.460132663898e+01
3.621789892927e+01
3.366973146670e+01
3.398795706420e+01
3.374184752926e+01
3.371662417473e+01
3.464689730438e+01
3.621822704517e+01
3.366702452663e+01
3.398695535343e+01
3.375228747701e+01
3.375021306185e+01
3.398756639426e+01
3.366747643603e+01
3.456351990248e+01
3.400250631655e+01
3.455762853941e+01
3.400905758114e+01
3.455623374052e+01
3.401467462429e+01
3.455088676099e+01
3.399217461853e+01
5.111461923431e+01
3.292191139252e+01
3.292111504379e+01
3.291722083558e+01
3.291716582666e+01
3.542918235007e+01
3.544186781928e+01
3.549494510460e+01
3.535784576933e+01
3.312720300444e+01
3.373940195895e+01
3.472863301187e+01
3.475713839679e+01
3.371411713631e+01
3.312663167583e+01
3.308646418579e+01
3.333050964738e+01
3.314441312621e+01
3.312680137240e+01
3.373745068642e+01
3.472697381886e+01
3.308852279397e+01
3.333156702367e+01
3.313859844127e+01
3.311763521418e+01
3.376620493753e+01
3.470017056888e+01
3.308586493591e+01
3.333081674536e+01
3.314607184336e+01
3.314459999274e+01
3.333130370959e+01
3.308648167079e+01
3.374452124534e+01
3.332972799033e+01
3.374121283193e+01
3.333600326890e+01
3.374278144886e+01
3.333764421628e+01
3.373830283940e+01
3.332200880428e+01
3.364772372957e+01
3.238884970813e+01
3.238801815942e+01
3.238655247026e+01
3.238507167579e+01
3.346838392864e+01
3.348142231114e+01
3.350423652256e+01
3.344977762808e+01
3.252972526185e+01
3.289621072245e+01
3.335734298039e+01
3.337077973734e+01
3.288497055640e+01
3.252949864364e+01
3.251113229491e+01
3.267932845962e+01
3.254478259570e+01
3.252924935031e+01
3.289569739194e+01
3.335965803959e+01
3.251248155291e+01
3.267985943690e+01
3.254102555173e+01
3.252438366659e+01
3.290954416148e+01
3.334883565166e+01
3.251076610488e+01
3.267974494769e+01
3.254565407129e+01
3.254478926690e+01
3.267989521346e+01
3.251122981806e+01
3.293315337029e+01
3.266465050433e+01
3.293065741229e+01
3.267034095690e+01
3.293145867890e+01
3.266926044243e+01
3.292932467606e+01
3.265992650486e+01
3.388052364500e+01
3.188541197840e+01
3.188470108943e+01
3.188456081349e+01
3.188279024222e+01
3.245974762445e+01
3.246235830939e+01
3.246650667303e+01
3.245767715351e+01
3.197319462050e+01
3.216631785315e+01
3.237135269028e+01
3.237667240727e+01
3.216131310279e+01
3.197390549152e+01
3.196868769219e+01
3.207160556091e+01
3.198418012791e+01
3.197265262176e+01
3.216633948817e+01
3.237283683847e+01
3.196923594602e+01
3.207179639322e+01
3.198202858053e+01
3.196957107483e+01
3.217329655563e+01
3.237000330013e+01
3.196813344343e+01
3.207183705272e+01
3.198460170592e+01
3.198415377396e+01
3.207187745920e+01
3.196869323857e+01
3.219990082261e+01
3.205330735077e+01
3.219857650488e+01
3.205747077319e+01
3.219944623970e+01
3.205553738486e+01
3.219821249790e+01
3.205074282660e+01
3.241033924665e+01
3.143134393694e+01
3.143076425205e+01
3.143064541620e+01
3.143028941003e+01
3.168572726842e+01
3.168715625092e+01
3.169014190312e+01
3.168313470666e+01
3.147953755425e+01
3.157092919572e+01
3.165927523675e+01
3.166183135122e+01
3.156866755087e+01
3.148031882164e+01
3.148097696166e+01
3.153654799391e+01
3.148719197729e+01
3.147908669524e+01
3.157098960337e+01
3.165988221969e+01
3.148097335539e+01
3.153662635967e+01
3.148606326260e+01
3.147743590576e+01
3.157443651133e+01
3.165851255836e+01
3.148035311060e+01
3.153674840592e+01
3.148725225885e+01
3.148705875758e+01
3.153669725088e+01
3.148098331328e+01
3.159173990659e+01
3.152169728812e+01
3.159112902203e+01
3.152424899141e+01
3.159190819145e+01
3.152271862188e+01
3.159122969248e+01
3.152055198400e+01
3.169891262753e+01
3.020577290509e+01
3.020568680544e+01
3.020566418512e+01
3.020602804571e+01
3.019702704487e+01
3.019692875070e+01
3.019669821776e+01
3.019732673122e+01
3.020543939779e+01
3.020252375197e+01
3.019832533112e+01
3.019826119421e+01
3.020264370328e+01
3.020555009859e+01
3.020623348488e+01
3.020576698939e+01
3.020582476090e+01
3.020539008782e+01
3.020251815747e+01
3.019830118999e+01
3.020608886343e+01
3.020571982004e+01
3.020581002810e+01
3.020549985744e+01