# vtk DataFile Version 3.0
Unstructured Grid from OpenGeoSys
ASCII
DATASET UNSTRUCTURED_GRID
FIELD TimesAndCycles 2
TIME 1 1 double
3.600000000000e+03
CYLCE 1 1 long
1
POINTS 1394 double
0.000000000000e+00 0.000000000000e+00 0.000000000000e+00
5.000000000000e+00 0.000000000000e+00 0.000000000000e+00
5.000000000000e+00 5.000000000000e+00 0.000000000000e+00
0.000000000000e+00 5.000000000000e+00 0.000000000000e+00
2.244234909000e+00 2.244234909000e+00 0.000000000000e+00
2.755765091000e+00 2.244234909000e+00 0.000000000000e+00
2.755765091000e+00 2.755765091000e+00 0.000000000000e+00
2.244234909000e+00 2.755765091000e+00 0.000000000000e+00
7.141316008320e-01 7.141316008320e-01 0.000000000000e+00
1.314642334730e+00 1.314642334730e+00 0.000000000000e+00
1.819609643610e+00 1.819609643610e+00 0.000000000000e+00
1.819609643610e+00 3.180390356390e+00 0.000000000000e+00
1.314642334740e+00 3.685357665260e+00 0.000000000000e+00
7.141316008360e-01 4.285868399160e+00 0.000000000000e+00
0.000000000000e+00 3.750000000000e+00 0.000000000000e+00
0.000000000000e+00 2.500000000000e+00 0.000000000000e+00
0.000000000000e+00 1.250000000000e+00 0.000000000000e+00
4.285868399170e+00 7.141316008320e-01 0.000000000000e+00
3.685357665270e+00 1.314642334730e+00 0.000000000000e+00
3.180390356390e+00 1.819609643610e+00 0.000000000000e+00
1.250000000000e+00 0.000000000000e+00 0.000000000000e+00
2.500000000000e+00 0.000000000000e+00 0.000000000000e+00
3.750000000000e+00 0.000000000000e+00 0.000000000000e+00
4.285868399170e+00 4.285868399170e+00 0.000000000000e+00
3.685357665270e+00 3.685357665270e+00 0.000000000000e+00
3.180390356390e+00 3.180390356390e+00 0.000000000000e+00
5.000000000000e+00 1.250000000000e+00 0.000000000000e+00
5.000000000000e+00 2.500000000000e+00 0.000000000000e+00
5.000000000000e+00 3.750000000000e+00 0.000000000000e+00
3.750000000000e+00 5.000000000000e+00 0.000000000000e+00
2.500000000000e+00 5.000000000000e+00 0.000000000000e+00
1.250000000000e+00 5.000000000000e+00 0.000000000000e+00
9.560744151940e-01 2.677827143250e+00 0.000000000000e+00
6.659597640160e-01 1.438876720610e+00 0.000000000000e+00
2.309219871940e+00 9.522638293400e-01 0.000000000000e+00
3.458157207860e+00 6.354750772000e-01 0.000000000000e+00
4.043925584810e+00 2.322172856750e+00 0.000000000000e+00
4.334040235980e+00 3.561123279390e+00 0.000000000000e+00
2.318530875810e+00 4.048536535600e+00 0.000000000000e+00
3.552396921680e+00 4.370927842320e+00 0.000000000000e+00
2.500000000000e+00 2.500000000000e+00 0.000000000000e+00
0.000000000000e+00 0.000000000000e+00 -5.000000000000e-01
5.000000000000e+00 0.000000000000e+00 -5.000000000000e-01
5.000000000000e+00 5.000000000000e+00 -5.000000000000e-01
0.000000000000e+00 5.000000000000e+00 -5.000000000000e-01
2.244234909000e+00 2.244234909000e+00 -5.000000000000e-01
2.755765091000e+00 2.244234909000e+00 -5.000000000000e-01
2.755765091000e+00 2.755765091000e+00 -5.000000000000e-01
2.244234909000e+00 2.755765091000e+00 -5.000000000000e-01
7.141316008320e-01 7.141316008320e-01 -5.000000000000e-01
1.314642334730e+00 1.314642334730e+00 -5.000000000000e-01
1.819609643610e+00 1.819609643610e+00 -5.000000000000e-01
1.819609643610e+00 3.180390356390e+00 -5.000000000000e-01
1.314642334740e+00 3.685357665260e+00 -5.000000000000e-01
7.141316008360e-01 4.285868399160e+00 -5.000000000000e-01
0.000000000000e+00 3.750000000000e+00 -5.000000000000e-01
0.000000000000e+00 2.500000000000e+00 -5.000000000000e-01
0.000000000000e+00 1.250000000000e+00 -5.000000000000e-01
4.285868399170e+00 7.141316008320e-01 -5.000000000000e-01
3.685357665270e+00 1.314642334730e+00 -5.000000000000e-01
3.180390356390e+00 1.819609643610e+00 -5.000000000000e-01
1.250000000000e+00 0.000000000000e+00 -5.000000000000e-01
2.500000000000e+00 0.000000000000e+00 -5.000000000000e-01
3.750000000000e+00 0.000000000000e+00 -5.000000000000e-01
4.285868399170e+00 4.285868399170e+00 -5.000000000000e-01
3.685357665270e+00 3.685357665270e+00 -5.000000000000e-01
3.180390356390e+00 3.180390356390e+00 -5.000000000000e-01
5.000000000000e+00 1.250000000000e+00 -5.000000000000e-01
5.000000000000e+00 2.500000000000e+00 -5.000000000000e-01
5.000000000000e+00 3.750000000000e+00 -5.000000000000e-01
3.750000000000e+00 5.000000000000e+00 -5.000000000000e-01
2.500000000000e+00 5.000000000000e+00 -5.000000000000e-01
1.250000000000e+00 5.000000000000e+00 -5.000000000000e-01
9.560744151940e-01 2.677827143250e+00 -5.000000000000e-01
6.659597640160e-01 1.438876720610e+00 -5.000000000000e-01
2.309219871940e+00 9.522638293400e-01 -5.000000000000e-01
3.458157207860e+00 6.354750772000e-01 -5.000000000000e-01
4.043925584810e+00 2.322172856750e+00 -5.000000000000e-01
4.334040235980e+00 3.561123279390e+00 -5.000000000000e-01
2.318530875810e+00 4.048536535600e+00 -5.000000000000e-01
3.552396921680e+00 4.370927842320e+00 -5.000000000000e-01
2.500000000000e+00 2.500000000000e+00 -5.000000000000e-01
0.000000000000e+00 0.000000000000e+00 -1.000000000000e+00
5.000000000000e+00 0.000000000000e+00 -1.000000000000e+00
5.000000000000e+00 5.000000000000e+00 -1.000000000000e+00
0.000000000000e+00 5.000000000000e+00 -1.000000000000e+00
2.244234909000e+00 2.244234909000e+00 -1.000000000000e+00
2.755765091000e+00 2.244234909000e+00 -1.000000000000e+00
2.755765091000e+00 2.755765091000e+00 -1.000000000000e+00
2.244234909000e+00 2.755765091000e+00 -1.000000000000e+00
7.141316008320e-01 7.141316008320e-01 -1.000000000000e+00
1.314642334730e+00 1.314642334730e+00 -1.000000000000e+00
1.819609643610e+00 1.819609643610e+00 -1.000000000000e+00
1.819609643610e+00 3.180390356390e+00 -1.000000000000e+00
1.314642334740e+00 3.685357665260e+00 -1.000000000000e+00
7.141316008360e-01 4.285868399160e+00 -1.000000000000e+00
0.000000000000e+00 3.750000000000e+00 -1.000000000000e+00
0.000000000000e+00 2.500000000000e+00 -1.000000000000e+00
0.000000000000e+00 1.250000000000e+00 -1.000000000000e+00
4.285868399170e+00 7.141316008320e-01 -1.000000000000e+00
3.685357665270e+00 1.314642334730e+00 -1.000000000000e+00
3.180390356390e+00 1.819609643610e+00 -1.000000000000e+00
1.250000000000e+00 0.000000000000e+00 -1.000000000000e+00
2.500000000000e+00 0.000000000000e+00 -1.000000000000e+00
3.750000000000e+00 0.000000000000e+00 -1.000000000000e+00
4.285868399170e+00 4.285868399170e+00 -1.000000000000e+00
3.685357665270e+00 3.685357665270e+00 -1.000000000000e+00
3.180390356390e+00 3.180390356390e+00 -1.000000000000e+00
5.000000000000e+00 1.250000000000e+00 -1.000000000000e+00
5.000000000000e+00 2.500000000000e+00 -1.000000000000e+00
5.000000000000e+00 3.750000000000e+00 -1.000000000000e+00
3.750000000000e+00 5.000000000000e+00 -1.000000000000e+00
2.500000000000e+00 5.000000000000e+00 -1.000000000000e+00
1.250000000000e+00 5.000000000000e+00 -1.000000000000e+00
9.560744151940e-01 2.677827143250e+00 -1.000000000000e+00
6.659597640160e-01 1.438876720610e+00 -1.000000000000e+00
2.309219871940e+00 9.522638293400e-01 -1.000000000000e+00
3.458157207860e+00 6.354750772000e-01 -1.000000000000e+00
4.043925584810e+00 2.322172856750e+00 -1.000000000000e+00
4.334040235980e+00 3.561123279390e+00 -1.000000000000e+00
2.318530875810e+00 4.048536535600e+00 -1.000000000000e+00
3.552396921680e+00 4.370927842320e+00 -1.000000000000e+00
2.500000000000e+00 2.500000000000e+00 -1.000000000000e+00
0.000000000000e+00 0.000000000000e+00 -3.000000000000e+00
5.000000000000e+00 0.000000000000e+00 -3.000000000000e+00
5.000000000000e+00 5.000000000000e+00 -3.000000000000e+00
0.000000000000e+00 5.000000000000e+00 -3.000000000000e+00
2.244234909000e+00 2.244234909000e+00 -3.000000000000e+00
2.755765091000e+00 2.244234909000e+00 -3.000000000000e+00
2.755765091000e+00 2.755765091000e+00 -3.000000000000e+00
2.244234909000e+00 2.755765091000e+00 -3.000000000000e+00
7.141316008320e-01 7.141316008320e-01 -3.000000000000e+00
1.314642334730e+00 1.314642334730e+00 -3.000000000000e+00
1.819609643610e+00 1.819609643610e+00 -3.000000000000e+00
1.819609643610e+00 3.180390356390e+00 -3.000000000000e+00
1.314642334740e+00 3.685357665260e+00 -3.000000000000e+00
7.141316008360e-01 4.285868399160e+00 -3.000000000000e+00
0.000000000000e+00 3.750000000000e+00 -3.000000000000e+00
0.000000000000e+00 2.500000000000e+00 -3.000000000000e+00
0.000000000000e+00 1.250000000000e+00 -3.000000000000e+00
4.285868399170e+00 7.141316008320e-01 -3.000000000000e+00
3.685357665270e+00 1.314642334730e+00 -3.000000000000e+00
3.180390356390e+00 1.819609643610e+00 -3.000000000000e+00
1.250000000000e+00 0.000000000000e+00 -3.000000000000e+00
2.500000000000e+00 0.000000000000e+00 -3.000000000000e+00
3.750000000000e+00 0.000000000000e+00 -3.000000000000e+00
4.285868399170e+00 4.285868399170e+00 -3.000000000000e+00
3.685357665270e+00 3.685357665270e+00 -3.000000000000e+00
3.180390356390e+00 3.180390356390e+00 -3.000000000000e+00
5.000000000000e+00 1.250000000000e+00 -3.000000000000e+00
5.000000000000e+00 2.500000000000e+00 -3.000000000000e+00
5.000000000000e+00 3.750000000000e+00 -3.000000000000e+00
3.750000000000e+00 5.000000000000e+00 -3.000000000000e+00
2.500000000000e+00 5.000000000000e+00 -3.000000000000e+00
1.250000000000e+00 5.000000000000e+00 -3.000000000000e+00
9.560744151940e-01 2.677827143250e+00 -3.000000000000e+00
6.659597640160e-01 1.438876720610e+00 -3.000000000000e+00
2.309219871940e+00 9.522638293400e-01 -3.000000000000e+00
3.458157207860e+00 6.354750772000e-01 -3.000000000000e+00
4.043925584810e+00 2.322172856750e+00 -3.000000000000e+00
4.334040235980e+00 3.561123279390e+00 -3.000000000000e+00
2.318530875810e+00 4.048536535600e+00 -3.000000000000e+00
3.552396921680e+00 4.370927842320e+00 -3.000000000000e+00
2.500000000000e+00 2.500000000000e+00 -3.000000000000e+00
0.000000000000e+00 0.000000000000e+00 -5.000000000000e+00
5.000000000000e+00 0.000000000000e+00 -5.000000000000e+00
5.000000000000e+00 5.000000000000e+00 -5.000000000000e+00
0.000000000000e+00 5.000000000000e+00 -5.000000000000e+00
2.244234909000e+00 2.244234909000e+00 -5.000000000000e+00
[...]
POINT_DATA 1394
SCALARS TEMPERATURE1 double 1
LOOKUP_TABLE default
1.000000000000e+01
1.000000000000e+01
1.000000000000e+01
1.000000000000e+01
1.000000000000e+01
1.000000000000e+01
1.000000000000e+01
1.000000000000e+01
1.000000000000e+01
1.000000000000e+01
1.000000000000e+01
1.000000000000e+01
1.000000000000e+01
1.000000000000e+01
1.000000000000e+01
1.000000000000e+01
1.000000000000e+01
1.000000000000e+01
1.000000000000e+01
1.000000000000e+01
1.000000000000e+01
1.000000000000e+01
1.000000000000e+01
1.000000000000e+01
1.000000000000e+01
1.000000000000e+01
1.000000000000e+01
1.000000000000e+01
1.000000000000e+01
1.000000000000e+01
1.000000000000e+01
1.000000000000e+01
1.000000000000e+01
1.000000000000e+01
1.000000000000e+01
1.000000000000e+01
1.000000000000e+01
1.000000000000e+01
1.000000000000e+01
1.000000000000e+01
1.000000000000e+01
3.290989540108e+01
3.290980003513e+01
3.290879756283e+01
3.291096133523e+01
3.238642916845e+01
3.241002108549e+01
3.244071195134e+01
3.236666671282e+01
3.290786335181e+01
3.291240383696e+01
3.289531026166e+01
3.289902086674e+01
3.291313050417e+01
3.290692746908e+01
3.290776979310e+01
3.290740338460e+01
3.291014123712e+01
3.290794132408e+01
3.291212787242e+01
3.289685368162e+01
3.290771637514e+01
3.290759608171e+01
3.291001585781e+01
3.290911815319e+01
3.291085796902e+01
3.288979066494e+01
3.290778642121e+01
3.290776856478e+01
3.290968537367e+01
3.290977896531e+01
3.290753992595e+01
3.290787468474e+01
3.291418304092e+01
3.290754049714e+01
3.291394248198e+01
3.290763445279e+01
3.291392229304e+01
3.290795749274e+01
3.291421677725e+01
3.290779700952e+01
3.017744193443e+01
2.984566081803e+01
2.984573751063e+01
2.984946040341e+01
2.984196585688e+01
3.274393472028e+01
3.262494331144e+01
3.238259062554e+01
3.300336608077e+01
2.985230450089e+01
2.983568503220e+01
2.986945558109e+01
2.983860040275e+01
2.983493835609e+01
2.985529662457e+01
2.985171352826e+01
2.985378095871e+01
2.984439657491e+01
2.985248537540e+01
2.983712085303e+01
2.986577910076e+01
2.985231661725e+01
2.985327322695e+01
2.984479634374e+01
2.984838541834e+01
2.983998436700e+01
2.992047149031e+01
2.985277210926e+01
2.985313725828e+01
2.984596301943e+01
2.984563335966e+01
2.985374273026e+01
2.985207849780e+01
2.983574926163e+01
2.985356631852e+01
2.983510750816e+01
2.985344026390e+01
2.983220453820e+01
2.985258856853e+01
2.983274249899e+01
2.985297229438e+01
4.418093364130e+01
3.001852386545e+01
3.001900579864e+01
3.002485394255e+01
3.001265369998e+01
3.328860255478e+01
3.317422332075e+01
3.296505980794e+01
3.348909067390e+01
3.003120361118e+01
3.000582438567e+01
3.016092619386e+01
3.013454406793e+01
3.000148796046e+01
3.003684905086e+01
3.003356264835e+01
3.003401317191e+01
3.001888864740e+01
3.003081693090e+01
3.000727663009e+01
3.014900568726e+01
3.003380857513e+01
3.003320373368e+01
3.001938372353e+01
3.002324636584e+01
3.001487100914e+01
3.019373721532e+01
3.003349089052e+01
3.003217886086e+01
3.002088349628e+01
3.002057319352e+01
3.003324686574e+01
3.003309912190e+01
2.998518110541e+01
3.003188028960e+01
2.998623136911e+01
3.003140346258e+01
2.998623100532e+01
3.003024524701e+01
2.998472773534e+01
3.003108477609e+01
4.404559611690e+01
2.999358106246e+01
2.999393330803e+01
2.999899702461e+01
2.998851990999e+01
3.305614386338e+01
3.294512664861e+01
3.273333007708e+01
3.326816263968e+01
3.000420056089e+01
2.998214321003e+01
3.010074539576e+01
3.007393375167e+01
2.997892143886e+01
3.000893482998e+01
3.000573515992e+01
3.000655091912e+01
2.999354923360e+01
3.000398438136e+01
2.998353124705e+01
3.009139822343e+01
3.000606724251e+01
3.000586195351e+01
2.999399336142e+01
2.999759827189e+01
2.998958781045e+01
3.013737805337e+01
3.000597371112e+01
3.000511427373e+01
2.999533658566e+01
2.999503947003e+01
3.000601065240e+01
3.000551794271e+01
2.996749290967e+01
3.000497169563e+01
2.996803564487e+01
3.000460897530e+01
2.996724247507e+01
3.000359768771e+01
2.996635258372e+01
3.000428082512e+01
4.367933624149e+01
2.999557225292e+01
2.999592323560e+01
3.000089722754e+01
2.999060650796e+01
3.298392984599e+01
3.287665573488e+01
3.267108037766e+01
3.319019795546e+01
3.000605513657e+01
2.998441557795e+01
3.010351885426e+01
3.007747738117e+01
2.998120231741e+01
3.001072249387e+01
3.000764939356e+01
3.000837571567e+01
2.999561246303e+01
3.000583226411e+01
2.998576421613e+01
3.009417810983e+01
3.000796248850e+01
3.000770447038e+01
2.999604208624e+01
2.999953016622e+01
2.999176285989e+01
3.013868633715e+01
3.000785445775e+01
3.000695579171e+01
2.999734765842e+01
2.999706366180e+01
3.000783330459e+01
3.000742082579e+01
2.996951159616e+01
3.000677015293e+01
2.997007330107e+01
3.000641076992e+01
2.996937086970e+01
3.000543371527e+01
2.996846113118e+01
3.000610689395e+01
4.332609317766e+01
2.999640308762e+01
2.999672192004e+01
3.000143873131e+01
2.999170425714e+01
3.287900702425e+01
3.277531443540e+01
3.257390226935e+01
3.308348698207e+01
3.000628833058e+01
2.998577157759e+01
3.009662757403e+01
3.007108348443e+01
2.998282466453e+01
3.001068806405e+01
3.000773332051e+01
3.000847555374e+01
2.999640532989e+01
3.000610149433e+01
2.998707168240e+01
3.008791290256e+01
3.000805238676e+01
3.000784669193e+01
2.999681142201e+01
3.000014562378e+01
2.999266382723e+01
3.013158642346e+01
3.000798669299e+01
3.000716366185e+01
2.999805084057e+01
2.999778013056e+01
3.000798568026e+01
3.000755497601e+01
2.997208510215e+01
3.000698121864e+01
2.997254033070e+01
3.000665178732e+01
2.997171808107e+01
3.000573589961e+01
2.997093909240e+01
3.000636409458e+01
4.297457599448e+01
2.999609127631e+01
2.999641266337e+01
3.000112193215e+01
2.999139973907e+01
3.286302810768e+01
3.276019337079e+01
3.256043161811e+01
3.306569952120e+01
3.000597706614e+01
2.998549463872e+01
3.009687439076e+01
3.007153560351e+01
2.998253506006e+01
3.001037494428e+01
3.000744219416e+01
3.000816382102e+01
2.999610909536e+01
3.000578454689e+01
2.998679065421e+01
3.008811683427e+01
3.000775505961e+01
3.000753595518e+01
2.999651408285e+01
2.999983158267e+01
2.999239173114e+01
3.013140070559e+01
3.000768162701e+01
3.000684747880e+01
2.999774870900e+01
2.999747986704e+01
3.000766913040e+01
3.000725590014e+01
2.997168984276e+01
3.000666062812e+01
2.997216043531e+01
3.000632878425e+01
2.997137522796e+01
3.000541618788e+01
2.997057957195e+01
3.000604515343e+01
4.289148225072e+01
2.999691610463e+01
2.999713492740e+01
3.000096681838e+01
2.999313502355e+01
3.247599251972e+01
3.238699161552e+01
3.220474480613e+01
3.266880800437e+01
3.000480354591e+01
2.998815661221e+01
3.007315063684e+01
3.004992176252e+01
2.998605899585e+01
3.000830209876e+01
3.000581887944e+01
3.000654582728e+01
2.999684735176e+01
3.000472045952e+01
2.998927664656e+01
3.006640228074e+01
3.000613869525e+01
3.000606268307e+01
2.999716964923e+01
2.999993152973e+01
2.999353746644e+01
3.010604263509e+01
3.000619017808e+01
3.000558258929e+01
2.999817127545e+01
2.999795181803e+01
3.000621673472e+01
3.000578410266e+01
2.997814927212e+01
3.000538905591e+01
2.997829513479e+01
3.000515410430e+01
2.997718860476e+01
3.000445461012e+01
2.997679568634e+01
3.000493430980e+01
4.152178008087e+01
2.999742312406e+01
2.999757633914e+01
3.000081104607e+01
2.999426127359e+01
3.219759202724e+01
3.211892428154e+01
3.195044798527e+01
3.238158999112e+01
3.000397378233e+01
2.998994154517e+01
3.005800097447e+01
3.003643983228e+01
2.998840336501e+01
3.000686838599e+01
3.000471542027e+01
3.000541776192e+01
2.999731806641e+01
3.000395705469e+01
2.999093761904e+01
3.005254332617e+01
3.000503205984e+01
3.000503307711e+01
2.999758330733e+01
2.999995018405e+01
2.999431383569e+01
3.008925850055e+01
3.000515755912e+01
3.000468573566e+01
2.999842253794e+01
2.999823873863e+01
3.000519360119e+01
3.000477232048e+01
2.998231356438e+01
3.000448034449e+01
2.998226092483e+01
3.000430737389e+01
2.998098547972e+01
3.000375534244e+01
2.998084143559e+01
3.000413596537e+01
4.049904727277e+01
2.999783322674e+01
2.999793616860e+01
3.000070294759e+01
2.999515512545e+01
3.197565265139e+01
3.190516317844e+01
3.174800937304e+01
3.215190949991e+01
3.000333921253e+01
2.999135405150e+01
3.004621181629e+01
3.002602991619e+01
2.999024582449e+01
3.000576254908e+01
3.000386846145e+01
3.000455030527e+01
2.999769945305e+01
3.000337265409e+01
2.999225109771e+01
3.004176162776e+01
3.000418112693e+01
3.000424160524e+01
2.999792044771e+01
2.999997800859e+01
2.999494196376e+01
3.007607019428e+01
3.000436171578e+01
3.000399636001e+01
2.999863316374e+01
2.999847699343e+01
3.000440651935e+01
3.000399411309e+01
2.998557293155e+01
3.000378475010e+01
2.998537112740e+01
3.000365946746e+01
2.998397502763e+01
3.000322078211e+01
2.998401934053e+01
3.000352471810e+01
3.967439252246e+01
2.999813448025e+01
2.999820090975e+01
3.000061841297e+01
2.999581666615e+01
3.180650518112e+01
3.174225867542e+01
3.159400873340e+01
3.197635820741e+01
3.000286423887e+01
2.999240622368e+01
3.003753313282e+01
3.001843996166e+01
2.999161253173e+01
3.000493743264e+01
3.000323877664e+01
3.000390225428e+01
2.999798097319e+01
3.000293333852e+01
2.999322833278e+01
3.003382497617e+01
3.000354693373e+01
3.000364965423e+01
2.999816917134e+01
2.999999460365e+01
2.999541382666e+01
3.006623540676e+01
3.000376610114e+01
3.000347873559e+01
2.999878747686e+01
2.999865193463e+01
3.000381675550e+01
3.000341303634e+01
2.998797709817e+01
3.000326370947e+01
2.998766943323e+01
3.000317311216e+01
2.998619410447e+01
3.000281811941e+01
2.998637316976e+01
3.000306554571e+01
3.903571660903e+01
2.999834482556e+01
2.999838667599e+01
3.000056053423e+01
2.999627734593e+01
3.168550816144e+01
3.162570301484e+01
3.148406555757e+01
3.185029292422e+01
3.000253539304e+01
2.999314121402e+01
3.003153911656e+01
3.001325907703e+01
2.999256127634e+01
3.000436565671e+01
3.000280376155e+01
3.000345323454e+01
2.999817753020e+01
3.000262786567e+01
2.999391010362e+01
3.002834340214e+01
3.000310756555e+01
3.000323897249e+01
2.999834322150e+01
3.000000676059e+01
2.999574841344e+01
3.005934236661e+01
3.000335144779e+01
3.000311837230e+01
2.999889608267e+01
2.999877473397e+01
3.000340696138e+01
3.000300956152e+01
2.998964097101e+01
3.000290325267e+01
2.998926431480e+01
3.000283607140e+01
2.998774278000e+01
3.000253803418e+01
2.998801078669e+01
3.000274673907e+01
3.857085649454e+01
2.999847133559e+01
2.999849917861e+01
3.000052572564e+01
2.999655413029e+01
3.160948939628e+01
3.155243877595e+01
3.141517758397e+01
3.177062477828e+01
3.000233747257e+01
2.999358442605e+01
3.002793355285e+01
3.001019591572e+01
2.999312890597e+01
3.000402187918e+01
3.000254212882e+01
3.000318306514e+01
2.999829459866e+01
3.000244265775e+01
2.999432051939e+01
3.002504429249e+01
3.000284223821e+01
3.000299109277e+01
2.999844717041e+01
3.000001369246e+01
2.999595344339e+01
3.005510917109e+01
3.000309903902e+01
3.000289953831e+01
2.999896106714e+01
2.999884798546e+01
3.000315919532e+01
3.000276477510e+01
2.999063930639e+01
3.000268742323e+01
2.999022551804e+01
3.000263362663e+01
2.998868429344e+01
3.000236834967e+01
2.998900140148e+01
3.000255432568e+01
3.827049304264e+01
2.999852012449e+01
2.999854371799e+01
3.000051325051e+01
2.999665926408e+01
3.157621401234e+01
3.152028321249e+01
3.138524188280e+01
3.173507056449e+01
3.000226201120e+01
2.999375361955e+01
3.002651332494e+01
3.000905764246e+01
2.999333931992e+01
3.000389133441e+01
3.000244104351e+01
3.000308010740e+01
2.999833665752e+01
3.000237025514e+01
2.999447599092e+01
3.002374209279e+01
3.000273841850e+01
3.000289525885e+01
2.999848499303e+01
3.000001629346e+01
2.999603578063e+01
3.005333631253e+01
3.000299745951e+01
3.000281318215e+01
2.999898507368e+01
2.999887454663e+01
3.000306317016e+01
3.000266715948e+01
2.999102342712e+01
3.000260767939e+01
2.999060163464e+01
3.000255803489e+01
2.998906367613e+01
3.000230244159e+01
2.998939340173e+01
3.000248062543e+01
3.812931599311e+01
2.999848094243e+01
2.999851165671e+01
3.000052517529e+01
2.999657174534e+01
3.158892273524e+01
3.153244918021e+01
3.139736916898e+01
3.174695555680e+01
3.000232471755e+01
2.999361661007e+01
3.002762648164e+01
3.001017663491e+01
2.999315142103e+01
3.000400029695e+01
3.000252365205e+01
3.000316560062e+01
2.999829600817e+01
3.000242416605e+01
2.999434801500e+01
3.002474915746e+01
3.000281848074e+01
3.000297118263e+01
2.999845003350e+01
3.000001381803e+01
2.999598221740e+01
3.005435110364e+01
3.000306692740e+01
3.000287573005e+01
2.999896362631e+01
2.999884955971e+01
3.000313752558e+01
3.000273723059e+01
2.999070465950e+01
3.000268023308e+01
2.999030930795e+01
3.000262379174e+01
2.998880504064e+01
3.000235303653e+01
2.998910456574e+01
3.000254025910e+01
3.815326567225e+01
2.999847172787e+01
2.999850368639e+01
3.000052829217e+01
2.999655046027e+01
3.159416488191e+01
3.153743069624e+01
3.140212832683e+01
3.175222132254e+01
3.000233941844e+01
2.999358231929e+01
3.002785280594e+01
3.001037929324e+01
2.999310504964e+01
3.000402652117e+01
3.000254161061e+01
3.000318579410e+01
2.999828556298e+01
3.000243774949e+01
2.999431524110e+01
3.002495789817e+01
3.000283666513e+01
3.000298909140e+01
2.999844085561e+01
3.000001328925e+01
2.999596718493e+01
3.005461139229e+01
3.000308361255e+01
3.000289128418e+01
2.999895813681e+01
2.999884311186e+01
3.000315578857e+01
3.000275336461e+01
2.999063530194e+01
3.000269760920e+01
2.999024404338e+01
3.000264008603e+01
2.998874281035e+01
3.000236547360e+01
2.998903739460e+01
3.000255468475e+01
3.817437352848e+01
2.999844801333e+01
2.999848333457e+01
3.000053541021e+01
2.999649767859e+01
3.160580240311e+01
3.154860723876e+01
3.141281315319e+01
3.176402541805e+01
3.000237691561e+01
2.999349760057e+01
3.002849973381e+01
3.001096847634e+01
2.999299384127e+01
3.000409176563e+01
3.000259013447e+01
3.000323700256e+01
2.999826152122e+01
3.000247163756e+01
2.999423651063e+01
3.002554602291e+01
3.000288504150e+01
3.000303525091e+01
2.999841982215e+01
3.000001200504e+01
2.999592981999e+01
3.005530610456e+01
3.000312789845e+01
3.000293090807e+01
2.999894507838e+01
2.999882811404e+01
3.000320172946e+01
3.000279685039e+01
2.999044932912e+01
3.000274024462e+01
2.999006890467e+01
3.000267952009e+01
2.998857811958e+01
3.000239705996e+01
2.998885967427e+01
3.000259111013e+01
3.820247928037e+01
2.999845112891e+01
2.999848607971e+01
3.000053453702e+01
2.999650459084e+01
3.160406665964e+01
3.154694970264e+01
3.141123581902e+01
3.176225619677e+01
3.000237207956e+01
2.999350848437e+01
3.002841464252e+01
3.001089255239e+01
2.999300851244e+01
3.000408319605e+01
3.000258373469e+01
3.000323025326e+01
2.999826447255e+01
3.000246710578e+01
2.999424704203e+01
3.002546707676e+01
3.000287855458e+01
3.000302914716e+01
2.999842247443e+01
3.000001219902e+01
2.999593470263e+01
3.005520946016e+01
3.000312186877e+01
3.000292555115e+01
2.999894667418e+01
2.999882993943e+01
3.000319559296e+01
3.000279097371e+01
2.999047380162e+01
3.000273487567e+01
2.999009222834e+01
3.000267440549e+01
2.998860054745e+01
3.000239298580e+01
2.998888356113e+01
3.000258643507e+01
3.823602914817e+01
2.999830867513e+01
2.999836367424e+01
3.000057496109e+01
2.999619016224e+01
3.167253225224e+01
3.161271447047e+01
3.147424874930e+01
3.183150606530e+01
3.000259685199e+01
2.999301420189e+01
3.003251204203e+01
3.001467139821e+01
2.999234877945e+01
3.000447513768e+01
3.000288238707e+01
3.000353767774e+01
2.999812734250e+01
3.000267040092e+01
2.999378400416e+01
3.002921144264e+01
3.000317563856e+01
3.000330705206e+01
2.999830218668e+01
3.000000332103e+01
2.999572465361e+01
3.005954195582e+01
3.000339350835e+01
3.000316394451e+01
2.999887275209e+01
2.999874525902e+01
3.000347109765e+01
3.000305894123e+01
2.998932710008e+01
3.000298552498e+01
2.998901141171e+01
3.000290652959e+01
2.998758653471e+01
3.000257959549e+01
2.998778982009e+01
3.000280186325e+01
3.831180778279e+01
2.999895153731e+01
2.999892383216e+01
3.000039428635e+01
2.999760453474e+01
3.133229701058e+01
3.128540922326e+01
3.116335700477e+01
3.148163731681e+01
3.000158646930e+01
2.999525759510e+01
3.001417057241e+01
2.999830538373e+01
2.999529020384e+01
3.000271628027e+01
3.000154491773e+01
3.000215663390e+01
2.999873848859e+01
3.000174385798e+01
2.999587509156e+01
3.001244707625e+01
3.000183455120e+01
3.000205137615e+01
2.999884092335e+01
3.000004111788e+01
2.999671564210e+01
3.003926927796e+01
3.000214720211e+01
3.000207404450e+01
2.999920649522e+01
2.999912511228e+01
3.000222183983e+01
3.000183841045e+01
2.999444912202e+01
3.000186723129e+01
2.999388036021e+01
3.000186550048e+01
2.999223628776e+01
3.000172869887e+01
2.999275425139e+01
3.000182681053e+01
3.766623670814e+01
2.999957065053e+01
2.999965626687e+01
3.000011053591e+01
2.999905913715e+01
3.009060691828e+01
3.008595061002e+01
3.009216711333e+01
3.007205449687e+01
3.000068847112e+01
2.999865890300e+01
3.001448373175e+01
3.001546512368e+01
2.999797211023e+01
3.000121060905e+01
3.000098787248e+01
3.000094330198e+01
2.999961473704e+01
3.000057924452e+01
2.999869504637e+01
3.001331724808e+01
3.000094107051e+01
3.000083618365e+01
2.999966969047e+01
2.999995797526e+01
2.999961280702e+01
3.001190191632e+01
3.000079271100e+01
3.000067259296e+01
2.999980949669e+01
2.999977599051e+01
3.000080425375e+01
3.000082088300e+01
2.999614865451e+01
3.000075862545e+01
2.999649921809e+01
3.000068357030e+01
2.999700356280e+01
3.000051308939e+01
2.999660411042e+01
3.000061713099e+01
2.898481199204e+01
3.000006279155e+01
3.000005595239e+01
2.999997280263e+01
3.000015197717e+01
2.995248000374e+01
2.995479611227e+01
2.995773600693e+01
2.995057467902e+01
2.999990010673e+01
3.000027650487e+01
2.999911191329e+01
2.999946176170e+01
3.000033615887e+01
2.999982284051e+01
2.999990036439e+01
2.999986253012e+01
3.000008929308e+01
2.999990419907e+01
3.000025554994e+01
2.999921040053e+01
2.999989380406e+01
2.999987908857e+01
3.000007869274e+01
3.000000008794e+01
3.000015192423e+01
2.999852316810e+01
2.999989727211e+01
2.999989104202e+01
3.000004947484e+01
3.000005799632e+01
2.999987195324e+01
2.999990646444e+01
3.000037651244e+01
2.999987006434e+01
3.000036130509e+01
2.999987654407e+01
3.000037151899e+01
2.999990545537e+01
3.000039067145e+01
2.999989249261e+01
3.015399777412e+01
3.000000721210e+01
3.000000381328e+01
3.000000142329e+01
3.000001137851e+01
3.001006189104e+01
3.000959122478e+01
3.000820506811e+01
3.001191129612e+01
2.999998829487e+01
2.999999892521e+01
2.999939928677e+01
2.999921963035e+01
3.000002246066e+01
2.999998017636e+01
2.999996996099e+01
2.999998390761e+01
2.999999674148e+01
2.999999417887e+01
3.000000279563e+01
2.999944269571e+01
2.999997512353e+01
2.999998557359e+01
2.999999651366e+01
3.000000241023e+01
2.999997850669e+01
2.999976268928e+01
2.999998367461e+01
2.999999231866e+01
2.999999687897e+01
2.999999637130e+01
2.999998991583e+01
2.999997891487e+01
3.000012006791e+01
2.999999270437e+01
3.000010214407e+01
2.999999548742e+01
3.000006584618e+01
2.999999735839e+01
3.000008551160e+01
2.999999481821e+01
2.997279030308e+01
2.999999752550e+01
2.999999826133e+01
3.000000037312e+01
2.999999493739e+01
2.999920177714e+01
2.999923248565e+01
2.999941581914e+01
2.999890985849e+01
3.000000399223e+01
2.999999429533e+01
3.000011334644e+01
3.000013784669e+01
2.999998904657e+01
3.000000693974e+01
3.000000689413e+01
3.000000550738e+01
2.999999854036e+01
3.000000288583e+01
2.999999407536e+01
3.000010427521e+01
3.000000614862e+01
3.000000483789e+01
2.999999882736e+01
2.999999961228e+01
3.000000033920e+01
3.000006261444e+01
3.000000459034e+01
3.000000343420e+01
2.999999942000e+01
2.999999930107e+01
3.000000427462e+01
3.000000520540e+01
2.999997286449e+01
3.000000401628e+01
2.999997631224e+01
3.000000339813e+01
2.999998237822e+01
3.000000238298e+01
2.999997856980e+01
3.000000309874e+01
3.000248857841e+01
3.000000069037e+01
3.000000048731e+01
2.999999988818e+01
3.000000142322e+01
3.000020582527e+01
3.000019824243e+01
3.000014884570e+01
3.000028548268e+01
2.999999888566e+01
3.000000164115e+01
2.999996914480e+01
2.999996252635e+01
3.000000309052e+01
2.999999806079e+01
2.999999810395e+01
2.999999846243e+01
3.000000043080e+01
2.999999918896e+01
3.000000169524e+01
2.999997162836e+01
2.999999830516e+01
2.999999865153e+01
3.000000034828e+01
3.000000010483e+01