# vtk DataFile Version 3.0
Unstructured Grid from OpenGeoSys
ASCII
DATASET UNSTRUCTURED_GRID
FIELD TimesAndCycles 2
TIME 1 1 double
3.600000000000e+03
CYLCE 1 1 long
1
POINTS 1394 double
0.000000000000e+00 0.000000000000e+00 0.000000000000e+00
5.000000000000e+00 0.000000000000e+00 0.000000000000e+00
5.000000000000e+00 5.000000000000e+00 0.000000000000e+00
0.000000000000e+00 5.000000000000e+00 0.000000000000e+00
2.244234909000e+00 2.244234909000e+00 0.000000000000e+00
2.755765091000e+00 2.244234909000e+00 0.000000000000e+00
2.755765091000e+00 2.755765091000e+00 0.000000000000e+00
2.244234909000e+00 2.755765091000e+00 0.000000000000e+00
7.141316008320e-01 7.141316008320e-01 0.000000000000e+00
1.314642334730e+00 1.314642334730e+00 0.000000000000e+00
1.819609643610e+00 1.819609643610e+00 0.000000000000e+00
1.819609643610e+00 3.180390356390e+00 0.000000000000e+00
1.314642334740e+00 3.685357665260e+00 0.000000000000e+00
7.141316008360e-01 4.285868399160e+00 0.000000000000e+00
0.000000000000e+00 3.750000000000e+00 0.000000000000e+00
0.000000000000e+00 2.500000000000e+00 0.000000000000e+00
0.000000000000e+00 1.250000000000e+00 0.000000000000e+00
4.285868399170e+00 7.141316008320e-01 0.000000000000e+00
3.685357665270e+00 1.314642334730e+00 0.000000000000e+00
3.180390356390e+00 1.819609643610e+00 0.000000000000e+00
1.250000000000e+00 0.000000000000e+00 0.000000000000e+00
2.500000000000e+00 0.000000000000e+00 0.000000000000e+00
3.750000000000e+00 0.000000000000e+00 0.000000000000e+00
4.285868399170e+00 4.285868399170e+00 0.000000000000e+00
3.685357665270e+00 3.685357665270e+00 0.000000000000e+00
3.180390356390e+00 3.180390356390e+00 0.000000000000e+00
5.000000000000e+00 1.250000000000e+00 0.000000000000e+00
5.000000000000e+00 2.500000000000e+00 0.000000000000e+00
5.000000000000e+00 3.750000000000e+00 0.000000000000e+00
3.750000000000e+00 5.000000000000e+00 0.000000000000e+00
2.500000000000e+00 5.000000000000e+00 0.000000000000e+00
1.250000000000e+00 5.000000000000e+00 0.000000000000e+00
9.560744151940e-01 2.677827143250e+00 0.000000000000e+00
6.659597640160e-01 1.438876720610e+00 0.000000000000e+00
2.309219871940e+00 9.522638293400e-01 0.000000000000e+00
3.458157207860e+00 6.354750772000e-01 0.000000000000e+00
4.043925584810e+00 2.322172856750e+00 0.000000000000e+00
4.334040235980e+00 3.561123279390e+00 0.000000000000e+00
2.318530875810e+00 4.048536535600e+00 0.000000000000e+00
3.552396921680e+00 4.370927842320e+00 0.000000000000e+00
2.500000000000e+00 2.500000000000e+00 0.000000000000e+00
0.000000000000e+00 0.000000000000e+00 -5.000000000000e-01
5.000000000000e+00 0.000000000000e+00 -5.000000000000e-01
5.000000000000e+00 5.000000000000e+00 -5.000000000000e-01
0.000000000000e+00 5.000000000000e+00 -5.000000000000e-01
2.244234909000e+00 2.244234909000e+00 -5.000000000000e-01
2.755765091000e+00 2.244234909000e+00 -5.000000000000e-01
2.755765091000e+00 2.755765091000e+00 -5.000000000000e-01
2.244234909000e+00 2.755765091000e+00 -5.000000000000e-01
7.141316008320e-01 7.141316008320e-01 -5.000000000000e-01
1.314642334730e+00 1.314642334730e+00 -5.000000000000e-01
1.819609643610e+00 1.819609643610e+00 -5.000000000000e-01
1.819609643610e+00 3.180390356390e+00 -5.000000000000e-01
1.314642334740e+00 3.685357665260e+00 -5.000000000000e-01
7.141316008360e-01 4.285868399160e+00 -5.000000000000e-01
0.000000000000e+00 3.750000000000e+00 -5.000000000000e-01
0.000000000000e+00 2.500000000000e+00 -5.000000000000e-01
0.000000000000e+00 1.250000000000e+00 -5.000000000000e-01
4.285868399170e+00 7.141316008320e-01 -5.000000000000e-01
3.685357665270e+00 1.314642334730e+00 -5.000000000000e-01
3.180390356390e+00 1.819609643610e+00 -5.000000000000e-01
1.250000000000e+00 0.000000000000e+00 -5.000000000000e-01
2.500000000000e+00 0.000000000000e+00 -5.000000000000e-01
3.750000000000e+00 0.000000000000e+00 -5.000000000000e-01
4.285868399170e+00 4.285868399170e+00 -5.000000000000e-01
3.685357665270e+00 3.685357665270e+00 -5.000000000000e-01
3.180390356390e+00 3.180390356390e+00 -5.000000000000e-01
5.000000000000e+00 1.250000000000e+00 -5.000000000000e-01
5.000000000000e+00 2.500000000000e+00 -5.000000000000e-01
5.000000000000e+00 3.750000000000e+00 -5.000000000000e-01
3.750000000000e+00 5.000000000000e+00 -5.000000000000e-01
2.500000000000e+00 5.000000000000e+00 -5.000000000000e-01
1.250000000000e+00 5.000000000000e+00 -5.000000000000e-01
9.560744151940e-01 2.677827143250e+00 -5.000000000000e-01
6.659597640160e-01 1.438876720610e+00 -5.000000000000e-01
2.309219871940e+00 9.522638293400e-01 -5.000000000000e-01
3.458157207860e+00 6.354750772000e-01 -5.000000000000e-01
4.043925584810e+00 2.322172856750e+00 -5.000000000000e-01
4.334040235980e+00 3.561123279390e+00 -5.000000000000e-01
2.318530875810e+00 4.048536535600e+00 -5.000000000000e-01
3.552396921680e+00 4.370927842320e+00 -5.000000000000e-01
2.500000000000e+00 2.500000000000e+00 -5.000000000000e-01
0.000000000000e+00 0.000000000000e+00 -1.000000000000e+00
5.000000000000e+00 0.000000000000e+00 -1.000000000000e+00
5.000000000000e+00 5.000000000000e+00 -1.000000000000e+00
0.000000000000e+00 5.000000000000e+00 -1.000000000000e+00
2.244234909000e+00 2.244234909000e+00 -1.000000000000e+00
2.755765091000e+00 2.244234909000e+00 -1.000000000000e+00
2.755765091000e+00 2.755765091000e+00 -1.000000000000e+00
2.244234909000e+00 2.755765091000e+00 -1.000000000000e+00
7.141316008320e-01 7.141316008320e-01 -1.000000000000e+00
1.314642334730e+00 1.314642334730e+00 -1.000000000000e+00
1.819609643610e+00 1.819609643610e+00 -1.000000000000e+00
1.819609643610e+00 3.180390356390e+00 -1.000000000000e+00
1.314642334740e+00 3.685357665260e+00 -1.000000000000e+00
7.141316008360e-01 4.285868399160e+00 -1.000000000000e+00
0.000000000000e+00 3.750000000000e+00 -1.000000000000e+00
0.000000000000e+00 2.500000000000e+00 -1.000000000000e+00
0.000000000000e+00 1.250000000000e+00 -1.000000000000e+00
4.285868399170e+00 7.141316008320e-01 -1.000000000000e+00
3.685357665270e+00 1.314642334730e+00 -1.000000000000e+00
3.180390356390e+00 1.819609643610e+00 -1.000000000000e+00
1.250000000000e+00 0.000000000000e+00 -1.000000000000e+00
2.500000000000e+00 0.000000000000e+00 -1.000000000000e+00
3.750000000000e+00 0.000000000000e+00 -1.000000000000e+00
4.285868399170e+00 4.285868399170e+00 -1.000000000000e+00
3.685357665270e+00 3.685357665270e+00 -1.000000000000e+00
3.180390356390e+00 3.180390356390e+00 -1.000000000000e+00
5.000000000000e+00 1.250000000000e+00 -1.000000000000e+00
5.000000000000e+00 2.500000000000e+00 -1.000000000000e+00
5.000000000000e+00 3.750000000000e+00 -1.000000000000e+00
3.750000000000e+00 5.000000000000e+00 -1.000000000000e+00
2.500000000000e+00 5.000000000000e+00 -1.000000000000e+00
1.250000000000e+00 5.000000000000e+00 -1.000000000000e+00
9.560744151940e-01 2.677827143250e+00 -1.000000000000e+00
6.659597640160e-01 1.438876720610e+00 -1.000000000000e+00
2.309219871940e+00 9.522638293400e-01 -1.000000000000e+00
3.458157207860e+00 6.354750772000e-01 -1.000000000000e+00
4.043925584810e+00 2.322172856750e+00 -1.000000000000e+00
4.334040235980e+00 3.561123279390e+00 -1.000000000000e+00
2.318530875810e+00 4.048536535600e+00 -1.000000000000e+00
3.552396921680e+00 4.370927842320e+00 -1.000000000000e+00
2.500000000000e+00 2.500000000000e+00 -1.000000000000e+00
0.000000000000e+00 0.000000000000e+00 -3.000000000000e+00
5.000000000000e+00 0.000000000000e+00 -3.000000000000e+00
5.000000000000e+00 5.000000000000e+00 -3.000000000000e+00
0.000000000000e+00 5.000000000000e+00 -3.000000000000e+00
2.244234909000e+00 2.244234909000e+00 -3.000000000000e+00
2.755765091000e+00 2.244234909000e+00 -3.000000000000e+00
2.755765091000e+00 2.755765091000e+00 -3.000000000000e+00
2.244234909000e+00 2.755765091000e+00 -3.000000000000e+00
7.141316008320e-01 7.141316008320e-01 -3.000000000000e+00
1.314642334730e+00 1.314642334730e+00 -3.000000000000e+00
1.819609643610e+00 1.819609643610e+00 -3.000000000000e+00
1.819609643610e+00 3.180390356390e+00 -3.000000000000e+00
1.314642334740e+00 3.685357665260e+00 -3.000000000000e+00
7.141316008360e-01 4.285868399160e+00 -3.000000000000e+00
0.000000000000e+00 3.750000000000e+00 -3.000000000000e+00
0.000000000000e+00 2.500000000000e+00 -3.000000000000e+00
0.000000000000e+00 1.250000000000e+00 -3.000000000000e+00
4.285868399170e+00 7.141316008320e-01 -3.000000000000e+00
3.685357665270e+00 1.314642334730e+00 -3.000000000000e+00
3.180390356390e+00 1.819609643610e+00 -3.000000000000e+00
1.250000000000e+00 0.000000000000e+00 -3.000000000000e+00
2.500000000000e+00 0.000000000000e+00 -3.000000000000e+00
3.750000000000e+00 0.000000000000e+00 -3.000000000000e+00
4.285868399170e+00 4.285868399170e+00 -3.000000000000e+00
3.685357665270e+00 3.685357665270e+00 -3.000000000000e+00
3.180390356390e+00 3.180390356390e+00 -3.000000000000e+00
5.000000000000e+00 1.250000000000e+00 -3.000000000000e+00
5.000000000000e+00 2.500000000000e+00 -3.000000000000e+00
5.000000000000e+00 3.750000000000e+00 -3.000000000000e+00
3.750000000000e+00 5.000000000000e+00 -3.000000000000e+00
2.500000000000e+00 5.000000000000e+00 -3.000000000000e+00
1.250000000000e+00 5.000000000000e+00 -3.000000000000e+00
9.560744151940e-01 2.677827143250e+00 -3.000000000000e+00
6.659597640160e-01 1.438876720610e+00 -3.000000000000e+00
2.309219871940e+00 9.522638293400e-01 -3.000000000000e+00
3.458157207860e+00 6.354750772000e-01 -3.000000000000e+00
4.043925584810e+00 2.322172856750e+00 -3.000000000000e+00
4.334040235980e+00 3.561123279390e+00 -3.000000000000e+00
2.318530875810e+00 4.048536535600e+00 -3.000000000000e+00
3.552396921680e+00 4.370927842320e+00 -3.000000000000e+00
2.500000000000e+00 2.500000000000e+00 -3.000000000000e+00
0.000000000000e+00 0.000000000000e+00 -5.000000000000e+00
5.000000000000e+00 0.000000000000e+00 -5.000000000000e+00
5.000000000000e+00 5.000000000000e+00 -5.000000000000e+00
0.000000000000e+00 5.000000000000e+00 -5.000000000000e+00
2.244234909000e+00 2.244234909000e+00 -5.000000000000e+00
[...]
POINT_DATA 1394
SCALARS TEMPERATURE1 double 1
LOOKUP_TABLE default
1.000000000000e+01
1.000000000000e+01
1.000000000000e+01
1.000000000000e+01
1.000000000000e+01
1.000000000000e+01
1.000000000000e+01
1.000000000000e+01
1.000000000000e+01
1.000000000000e+01
1.000000000000e+01
1.000000000000e+01
1.000000000000e+01
1.000000000000e+01
1.000000000000e+01
1.000000000000e+01
1.000000000000e+01
1.000000000000e+01
1.000000000000e+01
1.000000000000e+01
1.000000000000e+01
1.000000000000e+01
1.000000000000e+01
1.000000000000e+01
1.000000000000e+01
1.000000000000e+01
1.000000000000e+01
1.000000000000e+01
1.000000000000e+01
1.000000000000e+01
1.000000000000e+01
1.000000000000e+01
1.000000000000e+01
1.000000000000e+01
1.000000000000e+01
1.000000000000e+01
1.000000000000e+01
1.000000000000e+01
1.000000000000e+01
1.000000000000e+01
1.000000000000e+01
2.115152015061e+01
2.115153606204e+01
2.115020975812e+01
2.115140095046e+01
2.133787991265e+01
2.134532373660e+01
2.134057879229e+01
2.135953947488e+01
2.117534394833e+01
2.128403949681e+01
2.140133558995e+01
2.140385126299e+01
2.128178286065e+01
2.117337929892e+01
2.116200174093e+01
2.119581813400e+01
2.117676444247e+01
2.117575060269e+01
2.128380282909e+01
2.140456975835e+01
2.116284233685e+01
2.119609370107e+01
2.117581585763e+01
2.117616605906e+01
2.128596598281e+01
2.140409906632e+01
2.116284786539e+01
2.119622711305e+01
2.117703641900e+01
2.117677732566e+01
2.119623841075e+01
2.116238571827e+01
2.128989632306e+01
2.120504198136e+01
2.128848690099e+01
2.120550957246e+01
2.128703218534e+01
2.120680837850e+01
2.128737679973e+01
2.120379590703e+01
2.254151846749e+01
2.890716908401e+01
2.890697647393e+01
2.891514546679e+01
2.889834950378e+01
2.509217122164e+01
2.513103583791e+01
2.520010334240e+01
2.502430643418e+01
2.896033851451e+01
2.886319326929e+01
2.792745349823e+01
2.791814070508e+01
2.888916020201e+01
2.896020504044e+01
2.898374864601e+01
2.905430111278e+01
2.897030810032e+01
2.895933020367e+01
2.886734076837e+01
2.794699705229e+01
2.898552889917e+01
2.905288259712e+01
2.897030192894e+01
2.896435886451e+01
2.884329098571e+01
2.795588827386e+01
2.898461871962e+01
2.905367761816e+01
2.897104352023e+01
2.897106563960e+01
2.905382123368e+01
2.898312305952e+01
2.905298765974e+01
2.899706036755e+01
2.905236340285e+01
2.900519898735e+01
2.905295618041e+01
2.899373877590e+01
2.905529073336e+01
2.899608426968e+01
1.749997981995e+01
3.029846698885e+01
3.029779056403e+01
3.030854648041e+01
3.028839438056e+01
2.562881423395e+01
2.566405286570e+01
2.572307161769e+01
2.557175929383e+01
3.034920570927e+01
3.010777306716e+01
2.882294092495e+01
2.880500078182e+01
3.014219453488e+01
3.035175020198e+01
3.040150214356e+01
3.046171426869e+01
3.036690918837e+01
3.034734742875e+01
3.011305603235e+01
2.884374965556e+01
3.040244092653e+01
3.046011972529e+01
3.036775670161e+01
3.035267786166e+01
3.008096656907e+01
2.886124670819e+01
3.040143794065e+01
3.046127878733e+01
3.036673728636e+01
3.036728723453e+01
3.046088746588e+01
3.040055192686e+01
3.033995259532e+01
3.036773505570e+01
3.034039185809e+01
3.037839771611e+01
3.034260778708e+01
3.036176808926e+01
3.034528284867e+01
3.036826386900e+01
1.762514952885e+01
3.015776596513e+01
3.015706186599e+01
3.016703941507e+01
3.014835357156e+01
2.564648940590e+01
2.568191816320e+01
2.574203815233e+01
2.558802716301e+01
3.020788346574e+01
2.998481214630e+01
2.875886501231e+01
2.874234797133e+01
3.001765997519e+01
3.021006084220e+01
3.025699350355e+01
3.031744614538e+01
3.022521839421e+01
3.020612404686e+01
2.998987714476e+01
2.877919427127e+01
3.025790486178e+01
3.031592453531e+01
3.022597247913e+01
3.021140429307e+01
2.995922810674e+01
2.879519602279e+01
3.025695127038e+01
3.031707085134e+01
3.022505471180e+01
3.022552612431e+01
3.031668425268e+01
3.025612922989e+01
3.020844680450e+01
3.022796091885e+01
3.020877315099e+01
3.023824025859e+01
3.021080219555e+01
3.022238682005e+01
3.021339561748e+01
3.022837791830e+01
1.775808674591e+01
3.014929202899e+01
3.014858642393e+01
3.015844871690e+01
3.014012934884e+01
2.565536201345e+01
2.569024334877e+01
2.574925282096e+01
2.559804411690e+01
3.019605289058e+01
2.996652228824e+01
2.874147953083e+01
2.872482769310e+01
2.999930479911e+01
3.019823317156e+01
3.024547348944e+01
3.030185363815e+01
3.021316488180e+01
3.019430713287e+01
2.997154940545e+01
2.876156029768e+01
3.024631272637e+01
3.030034243646e+01
3.021399125893e+01
3.019965479190e+01
2.994088967212e+01
2.877764407410e+01
3.024540851978e+01
3.030149710576e+01
3.021295656611e+01
3.021344696682e+01
3.030109407570e+01
3.024462273607e+01
3.018735696277e+01
3.021303825972e+01
3.018773307293e+01
3.022312842956e+01
3.018974290571e+01
3.020741321860e+01
3.019236108931e+01
3.021357745315e+01
1.785607611464e+01
3.015248554504e+01
3.015177075036e+01
3.016144765570e+01
3.014360830514e+01
2.568705143875e+01
2.572154079570e+01
2.577988685298e+01
2.563034108535e+01
3.019647020482e+01
2.996330340553e+01
2.874469932601e+01
2.872809614325e+01
2.999587272859e+01
3.019862105570e+01
3.024591374242e+01
3.029900895215e+01
3.021341954574e+01
3.019474230977e+01
2.996827693547e+01
2.876452441763e+01
3.024668419823e+01
3.029751548501e+01
3.021429660332e+01
3.020013976371e+01
2.993775303399e+01
2.878049456710e+01
3.024582511829e+01
3.029867777247e+01
3.021316879302e+01
3.021366733039e+01
3.029825781878e+01
3.024508332445e+01
3.018101164816e+01
3.021107557856e+01
3.018142063910e+01
3.022098037555e+01
3.018340385823e+01
3.020544544876e+01
3.018603159910e+01
3.021170773062e+01
1.796073413766e+01
3.014858795620e+01
3.014787533401e+01
3.015748189830e+01
3.013982383624e+01
2.569742567404e+01
2.573172470914e+01
2.578977969300e+01
2.564095792723e+01
3.019126247029e+01
2.995668263165e+01
2.874149659648e+01
2.872492365242e+01
2.998914838839e+01
3.019339616177e+01
3.024061146644e+01
3.029216589038e+01
3.020806913483e+01
3.018954581309e+01
2.996163003744e+01
2.876120504851e+01
3.024135769415e+01
3.029067847905e+01
3.020896807633e+01
3.019496445576e+01
2.993117598056e+01
2.877711653929e+01
3.024051819449e+01
3.029184089058e+01
3.020780669181e+01
3.020830844152e+01
3.029141826290e+01
3.023978869301e+01
3.017288653646e+01
3.020478103437e+01
3.017330885321e+01
3.021459012852e+01
3.017527531856e+01
3.019915192835e+01
3.017790747850e+01
3.020545015010e+01
1.800637935833e+01
3.013396863782e+01
3.013323668527e+01
3.014206465924e+01
3.012635187379e+01
2.582468655780e+01
2.585734406736e+01
2.591253712919e+01
2.577094921371e+01
3.016556361788e+01
2.991984199146e+01
2.873948616601e+01
2.872325975920e+01
2.995123973274e+01
3.016752988648e+01
3.021428471564e+01
3.025285363736e+01
3.018147247736e+01
3.016393986265e+01
2.992454583153e+01
2.875810761655e+01
3.021478021456e+01
3.025144037409e+01
3.018255400257e+01
3.016953074583e+01
2.989484618589e+01
2.877343839070e+01
3.021412204833e+01
3.025262003359e+01
3.018106735005e+01
3.018159073626e+01
3.025214643858e+01
3.021354812934e+01
3.012236014747e+01
3.016994221306e+01
3.012289029477e+01
3.017894050135e+01
3.012471130116e+01
3.016435531826e+01
3.012737050721e+01
3.017094684498e+01
1.847038320519e+01
3.012258659106e+01
3.012184740295e+01
3.013010304943e+01
3.011579717065e+01
2.592860812713e+01
2.596000064860e+01
2.601303398921e+01
2.587690301562e+01
3.014620787300e+01
2.989357715582e+01
2.874214473166e+01
2.872622924949e+01
2.992410894266e+01
3.014804684442e+01
3.019425833483e+01
3.022348067888e+01
3.016138752966e+01
3.014465702811e+01
2.989809149509e+01
2.875993413920e+01
3.019457887866e+01
3.022212356284e+01
3.016259384044e+01
3.015035026636e+01
2.986903085490e+01
2.877478798957e+01
3.019405045104e+01
3.022330934570e+01
3.016088726237e+01
3.016142401551e+01
3.022280426192e+01
3.019358404826e+01
3.008567738950e+01
3.014410198487e+01
3.008628145336e+01
3.015248928157e+01
3.008799151320e+01
3.013856560559e+01
3.009066053052e+01
3.014533729186e+01
1.883688470990e+01
3.011372253775e+01
3.011298239835e+01
3.012078163463e+01
3.010756626414e+01
2.602175915338e+01
2.605213693213e+01
2.610343904995e+01
2.597169566591e+01
3.013143558040e+01
2.987514583957e+01
2.875014216062e+01
2.873453977058e+01
2.990490764608e+01
3.013316562048e+01
3.017872394737e+01
3.020104148140e+01
3.014600014722e+01
3.012994650211e+01
2.987950167011e+01
2.876725572259e+01
3.017891839965e+01
3.019973079923e+01
3.014729047424e+01
3.013569355053e+01
2.985103848155e+01
2.878167812430e+01
3.017848697105e+01
3.020091554472e+01
3.014543528001e+01
3.014597805369e+01
3.020039116284e+01
3.017809868050e+01
3.005880062834e+01
3.012465679332e+01
3.005945286336e+01
3.013255867587e+01
3.006107007023e+01
3.011918628889e+01
3.006373574962e+01
3.012605122957e+01
1.914913975233e+01
3.010689143434e+01
3.010615492052e+01
3.011360102824e+01
3.010120408660e+01
2.610196206931e+01
2.613155080132e+01
2.618151484075e+01
2.605317190717e+01
3.012037171632e+01
2.986273049230e+01
2.876091704676e+01
2.874561109556e+01
2.989183198145e+01
3.012201061503e+01
3.016687870131e+01
3.018426943081e+01
3.013442654482e+01
3.011893373496e+01
2.986695738966e+01
2.877749741291e+01
3.016698660887e+01
3.018299588191e+01
3.013576969801e+01
3.012470093682e+01
2.983902735588e+01
2.879154212063e+01
3.016662526759e+01
3.018417489629e+01
3.013382116435e+01
3.013436485464e+01
3.018364058597e+01
3.016629083246e+01
3.003972017299e+01
3.011036151716e+01
3.004040104922e+01
3.011788722989e+01
3.004194224202e+01
3.010496268622e+01
3.004459662828e+01
3.011185924854e+01
1.940652605104e+01
3.010196582407e+01
3.010123598311e+01
3.010842356765e+01
3.009660141436e+01
2.616853282447e+01
2.619753999299e+01
2.624652334319e+01
2.612068201667e+01
3.011268233943e+01
2.985548076026e+01
2.877326817782e+01
2.875823082138e+01
2.988403701149e+01
3.011424818124e+01
3.015843569510e+01
3.017262977021e+01
3.012633390085e+01
3.011128481298e+01
2.985960735375e+01
2.878944860274e+01
3.015849079269e+01
3.017138460251e+01
3.012770388921e+01
3.011704581626e+01
2.983213572999e+01
2.880317553955e+01
3.015817589642e+01
3.017255474239e+01
3.012570784840e+01
3.012624859834e+01
3.017201786843e+01
3.015787469881e+01
3.002747343997e+01
3.010068285965e+01
3.002816693921e+01
3.010793339370e+01
3.002964867246e+01
3.009535640439e+01
3.003228632689e+01
3.010223704581e+01
1.961014547115e+01
3.009878222095e+01
3.009806114014e+01
3.010507772273e+01
3.009360947935e+01
2.622091559205e+01
2.624953583732e+01
2.629787169507e+01
2.617369259933e+01
3.010803067968e+01
2.985266183174e+01
2.878622373153e+01
2.877141961870e+01
2.988079140011e+01
3.010954103829e+01
3.015308841107e+01
3.016561032486e+01
3.012138256961e+01
3.010666325446e+01
2.985671578795e+01
2.880213005910e+01
3.015312004712e+01
3.016438516310e+01
3.012275754952e+01
3.011239797098e+01
2.982962013648e+01
2.881560237568e+01
3.015283066005e+01
3.016554442270e+01
3.012075260856e+01
3.012128747744e+01
3.016501096620e+01
3.015254467885e+01
3.002122595071e+01
3.009512128136e+01
3.002191868823e+01
3.010219000494e+01
3.002335676503e+01
3.008986420322e+01
3.002597439791e+01
3.009669209891e+01
1.976083584649e+01
3.009725018602e+01
3.009653945019e+01
3.010346844764e+01
3.009214619600e+01
2.625894039443e+01
2.628735998441e+01
2.633536726904e+01
2.621204574468e+01
3.010622845414e+01
2.985386800876e+01
2.879928216165e+01
2.878467229063e+01
2.988169038588e+01
3.010770070288e+01
3.015066441760e+01
3.016292207118e+01
3.011938202797e+01
3.010488096014e+01
2.985787631211e+01
2.881503523226e+01
3.015069945191e+01
3.016170877581e+01
3.012074245889e+01
3.011057249609e+01
2.983107089312e+01
2.882831718323e+01
3.015041614059e+01
3.016285571704e+01
3.011876322223e+01
3.011928977311e+01
3.016233091658e+01
3.015012883910e+01
3.002050961907e+01
3.009339694065e+01
3.002118974569e+01
3.010037269089e+01
3.002259961949e+01
3.008820428682e+01
3.002519498823e+01
3.009494847453e+01
1.985927422050e+01
3.009740974532e+01
3.009671174969e+01
3.010364054145e+01
3.009224366089e+01
2.628297061563e+01
2.631138184967e+01
2.635938350692e+01
2.623610792693e+01
3.010739845988e+01
2.985944029048e+01
2.881293876766e+01
2.879848751448e+01
2.988707281578e+01
3.010884965945e+01
3.015126424830e+01
3.016476516395e+01
3.012045287514e+01
3.010606085552e+01
2.986343025881e+01
2.882866358618e+01
3.015133217449e+01
3.016355538242e+01
3.012177703070e+01
3.011168939765e+01
2.983683353596e+01
2.884181900679e+01
3.015103421526e+01
3.016468789653e+01
3.011986218733e+01
3.012037750241e+01
3.016417790319e+01
3.015072729429e+01
3.002570925359e+01
3.009571374889e+01
3.002636326113e+01
3.010268839978e+01
3.002776007023e+01
3.009058281737e+01
3.003033009618e+01
3.009720630426e+01
1.990596931112e+01
3.009755371633e+01
3.009685779787e+01
3.010379476753e+01
3.009236795495e+01
2.628578275187e+01
2.631419611100e+01
2.636224076528e+01
2.623884853276e+01
3.010777882913e+01
2.986048347852e+01
2.881491822533e+01
2.880048947559e+01
2.988809450525e+01
3.010923215255e+01
3.015158298777e+01
3.016535672647e+01
3.012082683407e+01
3.010644114265e+01
2.986447240774e+01
2.883064015188e+01
3.015165677180e+01
3.016414677802e+01
3.012214468636e+01
3.011205566976e+01
2.983790311370e+01
2.884377533452e+01
3.015135462007e+01
3.016527646319e+01
3.012024103804e+01
3.012075492870e+01
3.016476904722e+01
3.015104437646e+01
3.002678949487e+01
3.009632186695e+01
3.002744088190e+01
3.010330317287e+01
3.002884026335e+01
3.009119805900e+01
3.003140448928e+01
3.009780386613e+01
1.990656634250e+01
3.009790029415e+01
3.009720695855e+01
3.010416402305e+01
3.009267450122e+01
2.628247320230e+01
2.631096826823e+01
2.635897695000e+01
2.623573627250e+01
3.010855726172e+01
2.986234246914e+01
2.881618604866e+01
2.880174432931e+01
2.988998401642e+01
3.010999585438e+01
3.015223459440e+01
3.016658313245e+01
3.012160431074e+01
3.010722165082e+01
2.986633974926e+01
2.883197505070e+01
3.015232528034e+01
3.016537049566e+01
3.012291109445e+01
3.011284071539e+01
2.983974966207e+01
2.884515692326e+01
3.015201865589e+01
3.016650036738e+01
3.012102923229e+01
3.012153926885e+01
3.016599719955e+01
3.015169637416e+01
3.002914265794e+01
3.009755053371e+01
3.002977856943e+01
3.010455453950e+01
3.003116485034e+01
3.009243804899e+01
3.003373505911e+01
3.009901216176e+01
1.990824511714e+01
3.009944275467e+01
3.009874505908e+01
3.010563442893e+01
3.009425434108e+01
2.631322165487e+01
2.634168235717e+01
2.639038456372e+01
2.626519757975e+01
3.011064110546e+01
2.986681439988e+01
2.883058535000e+01
2.881642903578e+01
2.989416616939e+01
3.011210982435e+01
3.015422380916e+01
3.016905733798e+01
3.012376280638e+01
3.010930044521e+01
2.987077239285e+01
2.884618281551e+01
3.015429850369e+01
3.016785964704e+01
3.012505112700e+01
3.011482474310e+01
2.984447263475e+01
2.885898406492e+01
3.015397969504e+01
3.016897659187e+01
3.012317912724e+01
3.012368692282e+01
3.016847014014e+01
3.015368105044e+01
3.003232791390e+01
3.010012931416e+01
3.003297953904e+01
3.010711950280e+01
3.003441269338e+01
3.009505318885e+01
3.003692681235e+01
3.010157395672e+01
1.990556595008e+01
3.009085008098e+01
3.009019182565e+01
3.009764786128e+01
3.008524753707e+01
2.615986013701e+01
2.618790877788e+01
2.623274395082e+01
2.611801813343e+01
3.010006181352e+01
2.984158118449e+01
2.875040634847e+01
2.873459467267e+01
2.987051083277e+01
3.010155072466e+01
3.014476197211e+01
3.015751253845e+01
3.011275968710e+01
3.009871444839e+01
2.984576314817e+01
2.876681350097e+01
3.014492243526e+01
3.015622020942e+01
3.011414923250e+01
3.010457509279e+01
2.981794899097e+01
2.878172646156e+01
3.014462955491e+01
3.015737597925e+01
3.011223464810e+01
3.011276997883e+01
3.015690099969e+01
3.014420384761e+01
3.001444507378e+01
3.008711982826e+01
3.001507771785e+01
3.009425582264e+01
3.001638457458e+01
3.008178282619e+01
3.001913007970e+01
3.008865224409e+01
1.988117973679e+01
3.005376178181e+01
3.005338854660e+01
3.005771111866e+01
3.005046895070e+01
2.704936197756e+01
2.708100431102e+01
2.714567519616e+01
2.697861872492e+01
3.005924242396e+01
2.990458914712e+01
2.918128107606e+01
2.917569215607e+01
2.992376292969e+01
3.005932738033e+01
3.008510581223e+01
3.009559950211e+01
3.006755003608e+01
3.005842874425e+01
2.990723222909e+01
2.919363928996e+01
3.008532344847e+01
3.009474041235e+01
3.006837059916e+01
3.006321969026e+01
2.988849761862e+01
2.919611208641e+01
3.008509315843e+01
3.009552963310e+01
3.006726096657e+01
3.006754266436e+01
3.009525126480e+01
3.008472638414e+01
3.002098082458e+01
3.005317428711e+01
3.002130888225e+01
3.005772666900e+01
3.002219435549e+01
3.004989506959e+01
3.002404952665e+01
3.005395201235e+01
2.054503915648e+01
3.004193603996e+01
3.004162199295e+01
3.004439350957e+01
3.003977712103e+01
2.922706646059e+01
2.922303687575e+01
2.919727317055e+01
2.926628720841e+01
3.004907708828e+01
2.996365671887e+01
2.962489546486e+01
2.961460407973e+01
2.997278017020e+01
3.005016854584e+01
3.006566508416e+01
3.007285280553e+01
3.005372251780e+01
3.004862404497e+01
2.996513740144e+01
2.962923266540e+01
3.006570957635e+01
3.007248378265e+01
3.005414364824e+01
3.004968744170e+01
2.995667109966e+01
2.964245715478e+01
3.006567947820e+01
3.007288319688e+01
3.005351267171e+01
3.005371149967e+01
3.007267291405e+01
3.006557949997e+01
3.001917575753e+01
3.004670150009e+01
3.001922521811e+01
3.004930169446e+01
3.001932918664e+01
3.004497861492e+01
3.002028681497e+01
3.004728021189e+01
3.021163411209e+01
3.003078016731e+01
3.003061161110e+01
3.003157505366e+01
3.002994001274e+01
2.992798596329e+01
2.992341266835e+01
2.991607021173e+01
2.993375408902e+01
3.003755729019e+01
3.000930695980e+01
2.992903654043e+01
2.992627042037e+01
3.001117656295e+01
3.003860772478e+01
3.004569478299e+01
3.005099362117e+01
3.004007655678e+01
3.003725114208e+01
3.000970729282e+01
2.992894870649e+01
3.004551824499e+01
3.005090828694e+01
3.004019231316e+01
3.003674365568e+01
3.000822461508e+01
2.993227927384e+01
3.004537538601e+01
3.005094555299e+01
3.003992341616e+01
3.004001494647e+01
3.005084100174e+01
3.004556148018e+01
3.002373870807e+01
3.003867352916e+01
3.002405204297e+01
3.003975305469e+01
3.002467777531e+01
3.003799260489e+01
3.002455661893e+01
3.003886715820e+01
2.971291800819e+01
3.002074350279e+01
3.002062294950e+01
3.002057564724e+01
3.002071900087e+01
3.000531562214e+01
3.000561232808e+01
3.000670403305e+01
3.000368942641e+01
3.002562994344e+01
3.002468845057e+01
3.001783407771e+01
3.001784771778e+01
3.002472643879e+01
3.002592230458e+01
3.002836889671e+01
3.003325417260e+01
3.002740113308e+01
3.002551331663e+01
3.002473034390e+01
3.001770368827e+01
3.002825912452e+01
3.003329559165e+01
3.002735917781e+01
3.002526163966e+01
3.002477435248e+01
3.001754991657e+01
3.002819432643e+01
3.003332571781e+01
3.002726300646e+01
3.002728448144e+01
3.003323196517e+01
3.002834765826e+01
3.002816381413e+01
3.002855145380e+01
3.002823519713e+01
3.002901202691e+01
3.002851437877e+01
3.002847281072e+01
3.002839015765e+01
3.002856986453e+01
3.004291010002e+01
3.001228765176e+01
3.001222509608e+01
3.001212495712e+01
3.001227859251e+01
3.002679328977e+01
3.002681647316e+01
3.002672721170e+01
3.002703122857e+01
3.001589558962e+01
3.002110740254e+01
3.002508074355e+01
3.002519259380e+01
3.002096101004e+01
3.001595123442e+01
3.001651603496e+01
3.002063944100e+01
3.001678652262e+01
3.001585689985e+01
3.002112080262e+01
3.002512955261e+01
3.001649869664e+01
3.002066789841e+01
3.001672205052e+01
3.001573039197e+01
3.002131430411e+01
3.002510580225e+01
3.001646553191e+01
3.002068608462e+01
3.001674411600e+01
3.001673270238e+01
3.002064622541e+01
3.001652329866e+01
3.002292150785e+01
3.001885947765e+01
3.002289356212e+01
3.001910135601e+01
3.002295953472e+01
3.001890696463e+01
3.002290461743e+01
3.001879709830e+01
3.002358237189e+01
2.999955191757e+01
2.999955649249e+01
2.999956809872e+01
2.999953764739e+01
3.000003153184e+01
3.000004462119e+01
3.000010653174e+01
2.999993750986e+01
2.999954491736e+01
2.999974181013e+01
3.000008025773e+01
3.000009149629e+01
2.999973740886e+01
2.999954331660e+01
2.999947282111e+01
2.999946857765e+01
2.999949718016e+01
2.999954657405e+01
2.999974116846e+01
3.000007804330e+01
2.999947792288e+01
2.999946684114e+01
2.999949595649e+01
2.999954397760e+01