# vtk DataFile Version 3.0
Unstructured Grid from OpenGeoSys
ASCII
DATASET UNSTRUCTURED_GRID
FIELD TimesAndCycles 2
TIME 1 1 double
3.600000000000e+03
CYLCE 1 1 long
1
POINTS 1394 double
0.000000000000e+00 0.000000000000e+00 0.000000000000e+00
5.000000000000e+00 0.000000000000e+00 0.000000000000e+00
5.000000000000e+00 5.000000000000e+00 0.000000000000e+00
0.000000000000e+00 5.000000000000e+00 0.000000000000e+00
2.244234909000e+00 2.244234909000e+00 0.000000000000e+00
2.755765091000e+00 2.244234909000e+00 0.000000000000e+00
2.755765091000e+00 2.755765091000e+00 0.000000000000e+00
2.244234909000e+00 2.755765091000e+00 0.000000000000e+00
7.141316008320e-01 7.141316008320e-01 0.000000000000e+00
1.314642334730e+00 1.314642334730e+00 0.000000000000e+00
1.819609643610e+00 1.819609643610e+00 0.000000000000e+00
1.819609643610e+00 3.180390356390e+00 0.000000000000e+00
1.314642334740e+00 3.685357665260e+00 0.000000000000e+00
7.141316008360e-01 4.285868399160e+00 0.000000000000e+00
0.000000000000e+00 3.750000000000e+00 0.000000000000e+00
0.000000000000e+00 2.500000000000e+00 0.000000000000e+00
0.000000000000e+00 1.250000000000e+00 0.000000000000e+00
4.285868399170e+00 7.141316008320e-01 0.000000000000e+00
3.685357665270e+00 1.314642334730e+00 0.000000000000e+00
3.180390356390e+00 1.819609643610e+00 0.000000000000e+00
1.250000000000e+00 0.000000000000e+00 0.000000000000e+00
2.500000000000e+00 0.000000000000e+00 0.000000000000e+00
3.750000000000e+00 0.000000000000e+00 0.000000000000e+00
4.285868399170e+00 4.285868399170e+00 0.000000000000e+00
3.685357665270e+00 3.685357665270e+00 0.000000000000e+00
3.180390356390e+00 3.180390356390e+00 0.000000000000e+00
5.000000000000e+00 1.250000000000e+00 0.000000000000e+00
5.000000000000e+00 2.500000000000e+00 0.000000000000e+00
5.000000000000e+00 3.750000000000e+00 0.000000000000e+00
3.750000000000e+00 5.000000000000e+00 0.000000000000e+00
2.500000000000e+00 5.000000000000e+00 0.000000000000e+00
1.250000000000e+00 5.000000000000e+00 0.000000000000e+00
9.560744151940e-01 2.677827143250e+00 0.000000000000e+00
6.659597640160e-01 1.438876720610e+00 0.000000000000e+00
2.309219871940e+00 9.522638293400e-01 0.000000000000e+00
3.458157207860e+00 6.354750772000e-01 0.000000000000e+00
4.043925584810e+00 2.322172856750e+00 0.000000000000e+00
4.334040235980e+00 3.561123279390e+00 0.000000000000e+00
2.318530875810e+00 4.048536535600e+00 0.000000000000e+00
3.552396921680e+00 4.370927842320e+00 0.000000000000e+00
2.500000000000e+00 2.500000000000e+00 0.000000000000e+00
0.000000000000e+00 0.000000000000e+00 -5.000000000000e-01
5.000000000000e+00 0.000000000000e+00 -5.000000000000e-01
5.000000000000e+00 5.000000000000e+00 -5.000000000000e-01
0.000000000000e+00 5.000000000000e+00 -5.000000000000e-01
2.244234909000e+00 2.244234909000e+00 -5.000000000000e-01
2.755765091000e+00 2.244234909000e+00 -5.000000000000e-01
2.755765091000e+00 2.755765091000e+00 -5.000000000000e-01
2.244234909000e+00 2.755765091000e+00 -5.000000000000e-01
7.141316008320e-01 7.141316008320e-01 -5.000000000000e-01
1.314642334730e+00 1.314642334730e+00 -5.000000000000e-01
1.819609643610e+00 1.819609643610e+00 -5.000000000000e-01
1.819609643610e+00 3.180390356390e+00 -5.000000000000e-01
1.314642334740e+00 3.685357665260e+00 -5.000000000000e-01
7.141316008360e-01 4.285868399160e+00 -5.000000000000e-01
0.000000000000e+00 3.750000000000e+00 -5.000000000000e-01
0.000000000000e+00 2.500000000000e+00 -5.000000000000e-01
0.000000000000e+00 1.250000000000e+00 -5.000000000000e-01
4.285868399170e+00 7.141316008320e-01 -5.000000000000e-01
3.685357665270e+00 1.314642334730e+00 -5.000000000000e-01
3.180390356390e+00 1.819609643610e+00 -5.000000000000e-01
1.250000000000e+00 0.000000000000e+00 -5.000000000000e-01
2.500000000000e+00 0.000000000000e+00 -5.000000000000e-01
3.750000000000e+00 0.000000000000e+00 -5.000000000000e-01
4.285868399170e+00 4.285868399170e+00 -5.000000000000e-01
3.685357665270e+00 3.685357665270e+00 -5.000000000000e-01
3.180390356390e+00 3.180390356390e+00 -5.000000000000e-01
5.000000000000e+00 1.250000000000e+00 -5.000000000000e-01
5.000000000000e+00 2.500000000000e+00 -5.000000000000e-01
5.000000000000e+00 3.750000000000e+00 -5.000000000000e-01
3.750000000000e+00 5.000000000000e+00 -5.000000000000e-01
2.500000000000e+00 5.000000000000e+00 -5.000000000000e-01
1.250000000000e+00 5.000000000000e+00 -5.000000000000e-01
9.560744151940e-01 2.677827143250e+00 -5.000000000000e-01
6.659597640160e-01 1.438876720610e+00 -5.000000000000e-01
2.309219871940e+00 9.522638293400e-01 -5.000000000000e-01
3.458157207860e+00 6.354750772000e-01 -5.000000000000e-01
4.043925584810e+00 2.322172856750e+00 -5.000000000000e-01
4.334040235980e+00 3.561123279390e+00 -5.000000000000e-01
2.318530875810e+00 4.048536535600e+00 -5.000000000000e-01
3.552396921680e+00 4.370927842320e+00 -5.000000000000e-01
2.500000000000e+00 2.500000000000e+00 -5.000000000000e-01
0.000000000000e+00 0.000000000000e+00 -1.000000000000e+00
5.000000000000e+00 0.000000000000e+00 -1.000000000000e+00
5.000000000000e+00 5.000000000000e+00 -1.000000000000e+00
0.000000000000e+00 5.000000000000e+00 -1.000000000000e+00
2.244234909000e+00 2.244234909000e+00 -1.000000000000e+00
2.755765091000e+00 2.244234909000e+00 -1.000000000000e+00
2.755765091000e+00 2.755765091000e+00 -1.000000000000e+00
2.244234909000e+00 2.755765091000e+00 -1.000000000000e+00
7.141316008320e-01 7.141316008320e-01 -1.000000000000e+00
1.314642334730e+00 1.314642334730e+00 -1.000000000000e+00
1.819609643610e+00 1.819609643610e+00 -1.000000000000e+00
1.819609643610e+00 3.180390356390e+00 -1.000000000000e+00
1.314642334740e+00 3.685357665260e+00 -1.000000000000e+00
7.141316008360e-01 4.285868399160e+00 -1.000000000000e+00
0.000000000000e+00 3.750000000000e+00 -1.000000000000e+00
0.000000000000e+00 2.500000000000e+00 -1.000000000000e+00
0.000000000000e+00 1.250000000000e+00 -1.000000000000e+00
4.285868399170e+00 7.141316008320e-01 -1.000000000000e+00
3.685357665270e+00 1.314642334730e+00 -1.000000000000e+00
3.180390356390e+00 1.819609643610e+00 -1.000000000000e+00
1.250000000000e+00 0.000000000000e+00 -1.000000000000e+00
2.500000000000e+00 0.000000000000e+00 -1.000000000000e+00
3.750000000000e+00 0.000000000000e+00 -1.000000000000e+00
4.285868399170e+00 4.285868399170e+00 -1.000000000000e+00
3.685357665270e+00 3.685357665270e+00 -1.000000000000e+00
3.180390356390e+00 3.180390356390e+00 -1.000000000000e+00
5.000000000000e+00 1.250000000000e+00 -1.000000000000e+00
5.000000000000e+00 2.500000000000e+00 -1.000000000000e+00
5.000000000000e+00 3.750000000000e+00 -1.000000000000e+00
3.750000000000e+00 5.000000000000e+00 -1.000000000000e+00
2.500000000000e+00 5.000000000000e+00 -1.000000000000e+00
1.250000000000e+00 5.000000000000e+00 -1.000000000000e+00
9.560744151940e-01 2.677827143250e+00 -1.000000000000e+00
6.659597640160e-01 1.438876720610e+00 -1.000000000000e+00
2.309219871940e+00 9.522638293400e-01 -1.000000000000e+00
3.458157207860e+00 6.354750772000e-01 -1.000000000000e+00
4.043925584810e+00 2.322172856750e+00 -1.000000000000e+00
4.334040235980e+00 3.561123279390e+00 -1.000000000000e+00
2.318530875810e+00 4.048536535600e+00 -1.000000000000e+00
3.552396921680e+00 4.370927842320e+00 -1.000000000000e+00
2.500000000000e+00 2.500000000000e+00 -1.000000000000e+00
0.000000000000e+00 0.000000000000e+00 -3.000000000000e+00
5.000000000000e+00 0.000000000000e+00 -3.000000000000e+00
5.000000000000e+00 5.000000000000e+00 -3.000000000000e+00
0.000000000000e+00 5.000000000000e+00 -3.000000000000e+00
2.244234909000e+00 2.244234909000e+00 -3.000000000000e+00
2.755765091000e+00 2.244234909000e+00 -3.000000000000e+00
2.755765091000e+00 2.755765091000e+00 -3.000000000000e+00
2.244234909000e+00 2.755765091000e+00 -3.000000000000e+00
7.141316008320e-01 7.141316008320e-01 -3.000000000000e+00
1.314642334730e+00 1.314642334730e+00 -3.000000000000e+00
1.819609643610e+00 1.819609643610e+00 -3.000000000000e+00
1.819609643610e+00 3.180390356390e+00 -3.000000000000e+00
1.314642334740e+00 3.685357665260e+00 -3.000000000000e+00
7.141316008360e-01 4.285868399160e+00 -3.000000000000e+00
0.000000000000e+00 3.750000000000e+00 -3.000000000000e+00
0.000000000000e+00 2.500000000000e+00 -3.000000000000e+00
0.000000000000e+00 1.250000000000e+00 -3.000000000000e+00
4.285868399170e+00 7.141316008320e-01 -3.000000000000e+00
3.685357665270e+00 1.314642334730e+00 -3.000000000000e+00
3.180390356390e+00 1.819609643610e+00 -3.000000000000e+00
1.250000000000e+00 0.000000000000e+00 -3.000000000000e+00
2.500000000000e+00 0.000000000000e+00 -3.000000000000e+00
3.750000000000e+00 0.000000000000e+00 -3.000000000000e+00
4.285868399170e+00 4.285868399170e+00 -3.000000000000e+00
3.685357665270e+00 3.685357665270e+00 -3.000000000000e+00
3.180390356390e+00 3.180390356390e+00 -3.000000000000e+00
5.000000000000e+00 1.250000000000e+00 -3.000000000000e+00
5.000000000000e+00 2.500000000000e+00 -3.000000000000e+00
5.000000000000e+00 3.750000000000e+00 -3.000000000000e+00
3.750000000000e+00 5.000000000000e+00 -3.000000000000e+00
2.500000000000e+00 5.000000000000e+00 -3.000000000000e+00
1.250000000000e+00 5.000000000000e+00 -3.000000000000e+00
9.560744151940e-01 2.677827143250e+00 -3.000000000000e+00
6.659597640160e-01 1.438876720610e+00 -3.000000000000e+00
2.309219871940e+00 9.522638293400e-01 -3.000000000000e+00
3.458157207860e+00 6.354750772000e-01 -3.000000000000e+00
4.043925584810e+00 2.322172856750e+00 -3.000000000000e+00
4.334040235980e+00 3.561123279390e+00 -3.000000000000e+00
2.318530875810e+00 4.048536535600e+00 -3.000000000000e+00
3.552396921680e+00 4.370927842320e+00 -3.000000000000e+00
2.500000000000e+00 2.500000000000e+00 -3.000000000000e+00
0.000000000000e+00 0.000000000000e+00 -5.000000000000e+00
5.000000000000e+00 0.000000000000e+00 -5.000000000000e+00
5.000000000000e+00 5.000000000000e+00 -5.000000000000e+00
0.000000000000e+00 5.000000000000e+00 -5.000000000000e+00
2.244234909000e+00 2.244234909000e+00 -5.000000000000e+00
[...]
POINT_DATA 1394
SCALARS TEMPERATURE1 double 1
LOOKUP_TABLE default
1.000000000000e+01
1.000000000000e+01
1.000000000000e+01
1.000000000000e+01
1.000000000000e+01
1.000000000000e+01
1.000000000000e+01
1.000000000000e+01
1.000000000000e+01
1.000000000000e+01
1.000000000000e+01
1.000000000000e+01
1.000000000000e+01
1.000000000000e+01
1.000000000000e+01
1.000000000000e+01
1.000000000000e+01
1.000000000000e+01
1.000000000000e+01
1.000000000000e+01
1.000000000000e+01
1.000000000000e+01
1.000000000000e+01
1.000000000000e+01
1.000000000000e+01
1.000000000000e+01
1.000000000000e+01
1.000000000000e+01
1.000000000000e+01
1.000000000000e+01
1.000000000000e+01
1.000000000000e+01
1.000000000000e+01
1.000000000000e+01
1.000000000000e+01
1.000000000000e+01
1.000000000000e+01
1.000000000000e+01
1.000000000000e+01
1.000000000000e+01
1.000000000000e+01
1.809535884654e+01
1.809439036594e+01
1.808666615491e+01
1.809002692015e+01
2.214395454387e+01
2.217281232972e+01
2.226861588972e+01
2.202203694661e+01
1.838413399410e+01
1.930194004091e+01
2.093536099005e+01
2.098265687510e+01
1.925975409440e+01
1.838278235846e+01
1.831891928056e+01
1.866140966766e+01
1.840734021206e+01
1.838382950399e+01
1.929808825072e+01
2.092918178847e+01
1.832183102839e+01
1.866341337545e+01
1.839886983168e+01
1.836953348151e+01
1.934441726758e+01
2.088074284237e+01
1.831804900219e+01
1.866199740975e+01
1.840936948711e+01
1.840721858461e+01
1.866252293976e+01
1.831894610008e+01
1.927077364850e+01
1.867281625997e+01
1.926631769959e+01
1.868044697046e+01
1.926887574841e+01
1.868516623817e+01
1.926159588177e+01
1.866166530536e+01
2.023733401762e+01
2.673437090273e+01
2.673228461532e+01
2.671718025022e+01
2.672395096727e+01
3.865339447686e+01
3.861262327572e+01
3.854667934007e+01
3.872697392170e+01
2.730565163553e+01
2.916176846735e+01
3.278025914108e+01
3.284725718870e+01
2.906881445422e+01
2.730572796462e+01
2.717074303492e+01
2.783913052284e+01
2.734528264297e+01
2.730556255061e+01
2.915367320440e+01
3.275768920651e+01
2.717637938016e+01
2.784343371962e+01
2.732835056003e+01
2.727158786761e+01
2.925614414654e+01
3.270894660863e+01
2.716959884047e+01
2.784041616073e+01
2.734972528624e+01
2.734538221699e+01
2.784163475903e+01
2.717156265568e+01
2.903659044459e+01
2.787482779544e+01
2.902676482918e+01
2.788795151874e+01
2.902893292580e+01
2.790054455881e+01
2.901450374204e+01
2.785300246202e+01
5.289790227594e+01
3.131258767022e+01
3.130997646831e+01
3.129585954621e+01
3.129996123511e+01
4.248660716290e+01
4.246322282439e+01
4.243761499748e+01
4.251360627577e+01
3.193495677892e+01
3.386494990716e+01
3.739072931639e+01
3.746168069994e+01
3.377475182425e+01
3.193509020894e+01
3.180252328052e+01
3.253360772468e+01
3.198257726814e+01
3.193431280283e+01
3.385765214009e+01
3.737305011225e+01
3.180851701529e+01
3.253766216525e+01
3.196459717987e+01
3.190042746145e+01
3.395865415713e+01
3.731951078940e+01
3.180097418222e+01
3.253489953224e+01
3.198732211951e+01
3.198271295655e+01
3.253617078597e+01
3.180321292595e+01
3.379387668399e+01
3.254941053648e+01
3.378338603067e+01
3.256606920383e+01
3.378641596828e+01
3.257558223828e+01
3.377179798586e+01
3.252620992372e+01
5.380401636774e+01
3.358005690340e+01
3.357734481344e+01
3.356456879138e+01
3.356877716978e+01
4.371054946910e+01
4.368757795662e+01
4.365890790883e+01
4.374232694650e+01
3.415372618555e+01
3.590402042812e+01
3.907890415967e+01
3.914224572874e+01
3.582273780008e+01
3.415439024730e+01
3.403821333442e+01
3.471117286827e+01
3.420015082484e+01
3.415290453672e+01
3.589753720473e+01
3.906314917975e+01
3.404334622953e+01
3.471481505546e+01
3.418368756242e+01
3.412201759652e+01
3.598900990496e+01
3.901637376504e+01
3.403640461558e+01
3.471248895908e+01
3.420430326501e+01
3.420013520737e+01
3.471355449520e+01
3.403888544373e+01
3.584852900830e+01
3.471712346026e+01
3.583892555392e+01
3.473307255278e+01
3.584196838113e+01
3.474082521913e+01
3.582871520964e+01
3.469616243810e+01
5.422729708280e+01
3.450023315077e+01
3.449766192454e+01
3.448534816730e+01
3.448958655975e+01
4.424556678364e+01
4.422342521375e+01
4.419631566141e+01
4.427516762680e+01
3.504758410742e+01
3.672484764091e+01
3.977986211388e+01
3.984084261044e+01
3.664664033624e+01
3.504818456542e+01
3.493606014123e+01
3.557819464012e+01
3.509146255005e+01
3.504682625004e+01
3.671856404206e+01
3.976448057848e+01
3.494094774865e+01
3.558167341566e+01
3.507570327483e+01
3.501725154659e+01
3.680651285016e+01
3.971926296831e+01
3.493431807272e+01
3.557942852966e+01
3.509547011107e+01
3.509147646532e+01
3.558048671168e+01
3.493671093487e+01
3.666812102386e+01
3.558577482644e+01
3.665892787827e+01
3.560081289530e+01
3.666181464046e+01
3.560853489087e+01
3.664911252911e+01
3.556572618680e+01
5.434177384964e+01
3.481587596138e+01
3.481336179525e+01
3.480130831609e+01
3.480534960129e+01
4.439168545802e+01
4.436988803541e+01
4.434278136729e+01
4.442152989829e+01
3.535380975978e+01
3.700139546054e+01
4.000180533747e+01
4.006161636825e+01
3.692459302698e+01
3.535441495125e+01
3.524430965748e+01
3.587531152322e+01
3.539690175582e+01
3.535306676075e+01
3.699522821351e+01
3.998668675142e+01
3.524912954107e+01
3.587873371350e+01
3.538142082776e+01
3.532398110880e+01
3.708159960008e+01
3.994237857302e+01
3.524261353466e+01
3.587652060396e+01
3.540083815661e+01
3.539691922426e+01
3.587755745145e+01
3.524494291873e+01
3.694588766362e+01
3.588262587076e+01
3.693686047769e+01
3.589741875619e+01
3.693969912942e+01
3.590497533642e+01
3.692721554398e+01
3.586292388194e+01
5.433532668320e+01
3.489384056891e+01
3.489135164843e+01
3.487939141002e+01
3.488337046220e+01
4.440484223141e+01
4.438310861453e+01
4.435612169549e+01
4.443444334216e+01
3.542777153150e+01
3.706297161055e+01
4.004219197222e+01
4.010155608150e+01
3.698670078384e+01
3.542838415711e+01
3.531911338997e+01
3.594534649542e+01
3.547051865855e+01
3.542703461427e+01
3.705684778565e+01
4.002712930363e+01
3.532390344331e+01
3.594874926940e+01
3.545515755922e+01
3.539813072424e+01
3.714260849059e+01
3.998313372288e+01
3.531743410136e+01
3.594654420273e+01
3.547442245927e+01
3.547053333440e+01
3.594756930168e+01
3.531973682156e+01
3.700763347804e+01
3.595259866623e+01
3.699868775424e+01
3.596727937757e+01
3.700151729312e+01
3.597477491822e+01
3.698910990728e+01
3.593304018026e+01
5.429109730889e+01
3.460773695234e+01
3.460528183066e+01
3.459355920543e+01
3.459723164780e+01
4.403597414408e+01
4.401444096731e+01
4.398625203275e+01
4.406772165320e+01
3.513673832574e+01
3.675140161436e+01
3.969790557893e+01
3.975632865705e+01
3.667594314121e+01
3.513751400498e+01
3.503030344043e+01
3.565004231126e+01
3.517931480633e+01
3.513598189037e+01
3.674534252042e+01
3.968272002894e+01
3.503503793251e+01
3.565344014693e+01
3.516413075056e+01
3.510719093343e+01
3.683019207944e+01
3.963941838780e+01
3.502861869039e+01
3.565123555852e+01
3.518311904216e+01
3.517930300275e+01
3.565221280464e+01
3.503089204053e+01
3.669661823278e+01
3.565583542789e+01
3.668783517459e+01
3.567045877742e+01
3.669074750501e+01
3.567771178396e+01
3.667840650291e+01
3.563652352302e+01
5.389519924298e+01
3.433486876277e+01
3.433244151656e+01
3.432091004402e+01
3.432431809531e+01
4.370330051036e+01
4.368187323182e+01
4.365281557332e+01
4.373652140895e+01
3.486029203257e+01
3.645967037244e+01
3.938204657242e+01
3.943977060803e+01
3.638480857713e+01
3.486120104618e+01
3.475553435115e+01
3.537050563921e+01
3.490273152123e+01
3.485951919129e+01
3.645366040098e+01
3.936674775187e+01
3.476022941023e+01
3.537389939588e+01
3.488767914520e+01
3.483079554249e+01
3.653784377572e+01
3.932395324202e+01
3.475384404533e+01
3.537169124074e+01
3.490646360627e+01
3.490270260862e+01
3.537263405423e+01
3.475609331468e+01
3.640530095387e+01
3.537517013939e+01
3.639664471661e+01
3.538975516223e+01
3.639962811476e+01
3.539681920766e+01
3.638732882618e+01
3.535603873370e+01
5.355032083670e+01
3.412964411193e+01
3.412724320389e+01
3.411588773971e+01
3.411907241664e+01
4.343486242449e+01
4.341355833994e+01
4.338379666369e+01
4.346930944905e+01
3.465132661991e+01
3.623566071269e+01
3.913373120523e+01
3.919078700387e+01
3.616140457226e+01
3.465234588300e+01
3.454811957115e+01
3.515822901510e+01
3.469359256548e+01
3.465054114119e+01
3.622970002494e+01
3.911836001861e+01
3.455277427239e+01
3.516161428820e+01
3.467867128946e+01
3.462191576220e+01
3.631320702301e+01
3.907605370462e+01
3.454642645139e+01
3.515940670907e+01
3.469725899288e+01
3.469354951870e+01
3.516031966855e+01
3.454865333171e+01
3.618171092852e+01
3.516194500263e+01
3.617317209904e+01
3.517647687461e+01
3.617620998944e+01
3.518337407733e+01
3.616396398761e+01
3.514299234714e+01
5.325744948456e+01
3.396901730863e+01
3.396663917763e+01
3.395543348552e+01
3.395843563370e+01
4.321776084530e+01
4.319657035768e+01
4.316624893026e+01
4.325319433634e+01
3.448735320850e+01
3.605855636137e+01
3.893527801272e+01
3.899175864940e+01
3.598483380074e+01
3.448846185736e+01
3.438546297016e+01
3.499126205876e+01
3.452945188929e+01
3.448655791488e+01
3.605263875806e+01
3.891985513841e+01
3.439008167771e+01
3.499463822767e+01
3.451464555669e+01
3.445802905466e+01
3.613554992154e+01
3.887796918869e+01
3.438376805112e+01
3.499243242749e+01
3.453306308196e+01
3.452939774560e+01
3.499332101046e+01
3.438597601835e+01
3.600496315419e+01
3.499421165084e+01
3.599652435888e+01
3.500869094261e+01
3.599960472937e+01
3.501545009274e+01
3.598740931008e+01
3.497541555572e+01
5.301542911781e+01
3.385273983077e+01
3.385038093577e+01
3.383929925990e+01
3.384215910510e+01
4.305135287480e+01
4.303026807107e+01
4.299952836032e+01
4.308754031806e+01
3.436810952587e+01
3.592803033034e+01
3.878622636154e+01
3.884222161591e+01
3.585477257644e+01
3.436928687659e+01
3.426730979287e+01
3.486933273345e+01
3.441004773191e+01
3.436730718983e+01
3.592214992827e+01
3.877077321410e+01
3.427189681524e+01
3.487269921233e+01
3.439534073708e+01
3.433887376358e+01
3.600454205021e+01
3.872924258982e+01
3.426561423711e+01
3.487049652167e+01
3.441361369804e+01
3.440998528137e+01
3.487136592076e+01
3.426780657884e+01
3.587473904640e+01
3.487169158716e+01
3.586638332298e+01
3.488611901869e+01
3.586949430582e+01
3.489276779960e+01
3.585734709904e+01
3.485303057621e+01
5.282313844935e+01
3.377813038506e+01
3.377578691056e+01
3.376480253082e+01
3.376756018377e+01
4.293390095783e+01
4.291291165414e+01
4.288188787885e+01
4.297062017375e+01
3.429096749244e+01
3.584159254705e+01
3.868435680035e+01
3.873996092875e+01
3.576872365991e+01
3.429219356639e+01
3.419102716416e+01
3.478986772544e+01
3.433275801361e+01
3.429016067954e+01
3.583574288908e+01
3.866889228902e+01
3.419558718181e+01
3.479322441390e+01
3.431813338735e+01
3.426181814724e+01
3.591770075912e+01
3.862764854126e+01
3.418933185655e+01
3.479102593334e+01
3.433628878770e+01
3.433268982219e+01
3.479188120110e+01
3.419151211223e+01
3.578854371592e+01
3.479180514581e+01
3.578025356179e+01
3.480618330826e+01
3.578338409660e+01
3.481274931276e+01
3.577128128767e+01
3.477325611079e+01
5.267989157045e+01
3.374035627564e+01
3.373802412616e+01
3.372710811334e+01
3.372980340320e+01
4.286257404062e+01
4.284166672025e+01
4.281048310939e+01
4.289961835057e+01
3.425120214641e+01
3.579485562177e+01
3.862590392232e+01
3.868122273266e+01
3.572228388118e+01
3.425245689744e+01
3.415186589613e+01
3.474824396137e+01
3.429286506761e+01
3.425039341218e+01
3.578902895229e+01
3.861044367618e+01
3.415640490965e+01
3.475159156174e+01
3.427830272852e+01
3.422213107062e+01
3.587065486552e+01
3.856940990062e+01
3.415017175237e+01
3.474939782399e+01
3.429637150737e+01
3.429279374869e+01
3.475024418932e+01
3.415234351951e+01
3.574197548754e+01
3.474993375467e+01
3.573373158288e+01
3.476426804067e+01
3.573687102106e+01
3.477078065252e+01
3.572480620975e+01
3.473146948073e+01
5.258537562044e+01
3.375408648611e+01
3.375176278514e+01
3.374089489213e+01
3.374356804507e+01
4.284457809690e+01
4.282375330082e+01
4.279254982024e+01
4.288172262594e+01
3.426306076200e+01
3.580072602809e+01
3.862138880355e+01
3.867647995181e+01
3.572842011167e+01
3.426432529984e+01
3.416417448825e+01
3.475831061707e+01
3.430458949812e+01
3.426225268149e+01
3.579491930519e+01
3.860595809033e+01
3.416869336560e+01
3.476164712585e+01
3.429008161727e+01
3.423408235811e+01
3.587624811051e+01
3.856509318187e+01
3.416248245482e+01
3.475946087636e+01
3.430807854586e+01
3.430451705168e+01
3.476030243321e+01
3.416464892277e+01
3.574798307203e+01
3.475990287438e+01
3.573977350641e+01
3.477418783584e+01
3.574291027368e+01
3.478066923477e+01
3.573088678672e+01
3.474151275745e+01
5.253784690379e+01
3.379694987566e+01
3.379463461848e+01
3.378379669206e+01
3.378644354863e+01
4.286787067303e+01
4.284711212437e+01
4.281595746835e+01
4.290500631304e+01
3.430486848675e+01
3.583965384314e+01
3.865449595310e+01
3.870947237270e+01
3.576750490320e+01
3.430612037599e+01
3.420609085779e+01
3.479903058926e+01
3.434626973652e+01
3.430406521290e+01
3.583385998626e+01
3.863911719729e+01
3.421060687080e+01
3.480235815732e+01
3.433178969597e+01
3.427596084862e+01
3.591501447227e+01
3.859834803924e+01
3.420440911183e+01
3.480017592385e+01
3.434975782182e+01
3.434620254920e+01
3.480101950970e+01
3.420656486791e+01
3.578706440282e+01
3.480073002304e+01
3.577886580229e+01
3.481498015597e+01
3.578198663980e+01
3.482145832172e+01
3.576999286107e+01
3.478237266228e+01
5.254532575360e+01
3.385997826095e+01
3.385765884105e+01
3.384679366884e+01
3.384958619054e+01
4.291242927002e+01
4.289160619506e+01
4.286065102014e+01
4.294905910924e+01
3.436580194309e+01
3.589457807589e+01
3.870292075370e+01
3.875778036878e+01
3.582256169944e+01
3.436707200119e+01
3.426754321183e+01
3.485793053831e+01
3.440713205541e+01
3.436499603276e+01
3.588878559144e+01
3.868746714145e+01
3.427201469170e+01
3.486125662832e+01
3.439271130632e+01
3.433695901206e+01
3.596976128733e+01
3.864671191801e+01
3.426584174613e+01
3.485908137569e+01
3.441058634561e+01
3.440704479073e+01
3.485991041056e+01
3.426801689286e+01
3.584127730052e+01
3.485956728641e+01
3.583313027651e+01
3.487374568045e+01
3.583626725519e+01
3.488022121274e+01
3.582429211287e+01
3.484129523662e+01
5.255098335475e+01
3.382941277183e+01
3.382710564349e+01
3.381643820078e+01
3.381858239114e+01
4.284802157424e+01
4.282740089051e+01
4.279536846565e+01
4.288689309825e+01
3.433992508904e+01
3.587464583293e+01
3.867144709826e+01
3.872594196545e+01
3.580298354449e+01
3.434117822142e+01
3.424178268285e+01
3.483780054232e+01
3.438175525611e+01
3.433910717351e+01
3.586895996133e+01
3.865648004499e+01
3.424639388655e+01
3.484113691770e+01
3.436726648258e+01
3.431098312052e+01
3.594964241771e+01
3.861636795545e+01
3.424017345071e+01
3.483895520936e+01
3.438523834503e+01
3.438168090038e+01
3.483976723983e+01
3.424223959931e+01
3.582674655264e+01
3.483770282305e+01
3.581853232821e+01
3.485222742518e+01
3.582164524645e+01
3.485835853539e+01
3.580966894939e+01
3.481927282170e+01
5.253862435728e+01
3.331602557658e+01
3.331422651606e+01
3.330266562143e+01
3.330574942880e+01
4.273296468163e+01
4.271284341586e+01
4.268771225774e+01
4.276055038394e+01
3.381273559948e+01
3.537694632588e+01
3.832644926298e+01
3.838474451704e+01
3.530135205191e+01
3.381309637425e+01
3.370333229513e+01
3.428431582703e+01
3.384886544666e+01
3.381236928245e+01
3.537055710155e+01
3.830939192071e+01
3.370825882610e+01
3.428780236435e+01
3.383440342142e+01
3.378394376310e+01
3.545456400107e+01
3.826423982078e+01
3.370219267330e+01
3.428527888729e+01
3.385262572546e+01
3.384899988926e+01
3.428630183095e+01
3.370379353018e+01
3.529744901504e+01
3.430358387644e+01
3.528926133050e+01
3.431613287505e+01
3.529188893608e+01
3.432492090112e+01
3.527962720522e+01
3.428490874407e+01
5.239351059482e+01
3.199717418922e+01
3.199603622501e+01
3.198831221236e+01
3.199124336471e+01
3.939508357802e+01
3.935396146287e+01
3.926720519153e+01
3.949746313184e+01
3.230760682433e+01
3.331132349990e+01
3.538043894962e+01
3.541151641211e+01
3.325812295102e+01
3.230909263855e+01
3.223655014509e+01
3.259457502469e+01
3.232793999516e+01
3.230750655187e+01
3.330670682889e+01
3.536386097194e+01
3.223937732749e+01
3.259701109287e+01
3.231876267962e+01
3.228697454564e+01
3.336550667209e+01
3.534570865036e+01
3.223570625842e+01
3.259517694088e+01
3.233030071699e+01
3.232803802677e+01
3.259585679529e+01
3.223698900418e+01
3.322348688704e+01
3.261350909837e+01
3.321835842302e+01
3.262023775694e+01
3.321967926788e+01
3.262753731423e+01
3.321140832981e+01
3.260192967879e+01
5.089191085130e+01
3.160033284369e+01
3.159932273097e+01
3.159410704851e+01
3.159565171720e+01
3.463210935210e+01
3.464927507876e+01
3.471409570615e+01
3.454679577256e+01
3.183262165603e+01
3.253047083445e+01
3.372019014822e+01
3.375417934160e+01
3.249973480509e+01
3.183224769892e+01
3.178753436616e+01
3.206208669008e+01
3.185298025829e+01
3.183212512981e+01
3.252790961305e+01
3.371631491472e+01
3.178963176470e+01
3.206347308052e+01
3.184637931204e+01
3.182100444392e+01
3.256238231678e+01
3.368286977613e+01
3.178658263741e+01
3.206253182308e+01
3.185455926089e+01
3.185290024370e+01
3.206292723568e+01
3.178753693477e+01
3.252335888776e+01
3.206105369772e+01
3.251988727736e+01
3.206799495303e+01
3.252212160643e+01
3.207023789060e+01
3.251659496964e+01
3.205245971069e+01
3.295778900550e+01
3.121194647325e+01
3.121091327668e+01
3.120877890745e+01
3.120804031567e+01
3.244302287070e+01
3.245746462581e+01
3.248268947556e+01
3.242273686888e+01
3.137088150536e+01
3.178471210270e+01
3.230882160528e+01
3.232405985547e+01
3.177177936699e+01
3.137049543589e+01
3.135040710361e+01
3.154050863598e+01
3.138864181447e+01
3.137035160839e+01
3.178411607733e+01
3.231148775652e+01
3.135189278843e+01
3.154119131393e+01
3.138443340397e+01
3.136486425506e+01
3.179982944540e+01
3.229922607643e+01
3.134999528117e+01
3.154109560757e+01
3.138949778360e+01
3.138848113495e+01
3.154114931656e+01
3.135056469108e+01
3.182575757812e+01
3.152321084117e+01
3.182296911320e+01
3.152971421956e+01
3.182383500717e+01
3.152844516580e+01
3.182138786118e+01
3.151789647984e+01
3.285539672122e+01
3.085593209711e+01
3.085508030339e+01
3.085468636845e+01
3.085307787001e+01
3.149463748485e+01
3.149761704237e+01
3.150241692913e+01
3.149208380995e+01
3.095548810031e+01
3.117267312464e+01
3.140118006274e+01
3.140714333920e+01
3.116699695643e+01
3.095622747255e+01
3.095095179995e+01
3.106781525155e+01
3.096839299131e+01
3.095486994063e+01
3.117273141075e+01
3.140290220894e+01
3.095157494252e+01
3.106808602947e+01
3.096599662660e+01
3.095135549497e+01
3.118051303893e+01
3.139970549171e+01
3.095034114320e+01
3.106813947092e+01
3.096879064012e+01
3.096825483470e+01
3.106810169036e+01
3.095097018018e+01
3.121129546730e+01
3.104621342853e+01
3.120985123049e+01
3.105102896201e+01
3.121084467134e+01
3.104870370220e+01
3.120940222119e+01
3.104330563530e+01
3.144700323827e+01
3.055081757301e+01
3.055014067472e+01
3.054985903382e+01
3.054962897497e+01
3.083924209095e+01
3.084083692296e+01
3.084413737547e+01
3.083638318823e+01
3.060605403233e+01
3.070957175610e+01
3.080907103222e+01
3.081193084084e+01
3.070694649514e+01
3.060690161843e+01
3.060805202232e+01
3.067176030205e+01
3.061506737165e+01
3.060554281531e+01
3.070966033608e+01
3.080976262185e+01
3.060807613816e+01
3.067190241539e+01
3.061380988222e+01
3.060359512997e+01
3.071354413909e+01
3.080820491136e+01
3.060737592243e+01
3.067203328881e+01
3.061507667232e+01
3.061483806137e+01
3.067190769588e+01
3.060806004610e+01
3.073356528283e+01
3.065423746709e+01
3.073291929538e+01
3.065722390715e+01
3.073381766982e+01
3.065537335596e+01
3.073299240410e+01
3.065291294196e+01
3.085336617010e+01
2.987881088462e+01
2.987872552327e+01
2.987866040090e+01
2.987904418162e+01
2.987026346418e+01
2.987016572403e+01
2.986992541242e+01
2.987056779754e+01
2.987868217932e+01
2.987592673976e+01
2.987170798684e+01
2.987163386800e+01
2.987602171274e+01
2.987877171293e+01
2.987952841943e+01
2.987930584266e+01
2.987913866275e+01
2.987863667011e+01
2.987592851348e+01
2.987169105809e+01
2.987940586864e+01
2.987928047614e+01
2.987913239997e+01
2.987871370492e+01