# vtk DataFile Version 3.0
Unstructured Grid from OpenGeoSys
ASCII
DATASET UNSTRUCTURED_GRID
FIELD TimesAndCycles 2
TIME 1 1 double
3.600000000000e+03
CYLCE 1 1 long
1
POINTS 1394 double
0.000000000000e+00 0.000000000000e+00 0.000000000000e+00
5.000000000000e+00 0.000000000000e+00 0.000000000000e+00
5.000000000000e+00 5.000000000000e+00 0.000000000000e+00
0.000000000000e+00 5.000000000000e+00 0.000000000000e+00
2.244234909000e+00 2.244234909000e+00 0.000000000000e+00
2.755765091000e+00 2.244234909000e+00 0.000000000000e+00
2.755765091000e+00 2.755765091000e+00 0.000000000000e+00
2.244234909000e+00 2.755765091000e+00 0.000000000000e+00
7.141316008320e-01 7.141316008320e-01 0.000000000000e+00
1.314642334730e+00 1.314642334730e+00 0.000000000000e+00
1.819609643610e+00 1.819609643610e+00 0.000000000000e+00
1.819609643610e+00 3.180390356390e+00 0.000000000000e+00
1.314642334740e+00 3.685357665260e+00 0.000000000000e+00
7.141316008360e-01 4.285868399160e+00 0.000000000000e+00
0.000000000000e+00 3.750000000000e+00 0.000000000000e+00
0.000000000000e+00 2.500000000000e+00 0.000000000000e+00
0.000000000000e+00 1.250000000000e+00 0.000000000000e+00
4.285868399170e+00 7.141316008320e-01 0.000000000000e+00
3.685357665270e+00 1.314642334730e+00 0.000000000000e+00
3.180390356390e+00 1.819609643610e+00 0.000000000000e+00
1.250000000000e+00 0.000000000000e+00 0.000000000000e+00
2.500000000000e+00 0.000000000000e+00 0.000000000000e+00
3.750000000000e+00 0.000000000000e+00 0.000000000000e+00
4.285868399170e+00 4.285868399170e+00 0.000000000000e+00
3.685357665270e+00 3.685357665270e+00 0.000000000000e+00
3.180390356390e+00 3.180390356390e+00 0.000000000000e+00
5.000000000000e+00 1.250000000000e+00 0.000000000000e+00
5.000000000000e+00 2.500000000000e+00 0.000000000000e+00
5.000000000000e+00 3.750000000000e+00 0.000000000000e+00
3.750000000000e+00 5.000000000000e+00 0.000000000000e+00
2.500000000000e+00 5.000000000000e+00 0.000000000000e+00
1.250000000000e+00 5.000000000000e+00 0.000000000000e+00
9.560744151940e-01 2.677827143250e+00 0.000000000000e+00
6.659597640160e-01 1.438876720610e+00 0.000000000000e+00
2.309219871940e+00 9.522638293400e-01 0.000000000000e+00
3.458157207860e+00 6.354750772000e-01 0.000000000000e+00
4.043925584810e+00 2.322172856750e+00 0.000000000000e+00
4.334040235980e+00 3.561123279390e+00 0.000000000000e+00
2.318530875810e+00 4.048536535600e+00 0.000000000000e+00
3.552396921680e+00 4.370927842320e+00 0.000000000000e+00
2.500000000000e+00 2.500000000000e+00 0.000000000000e+00
0.000000000000e+00 0.000000000000e+00 -5.000000000000e-01
5.000000000000e+00 0.000000000000e+00 -5.000000000000e-01
5.000000000000e+00 5.000000000000e+00 -5.000000000000e-01
0.000000000000e+00 5.000000000000e+00 -5.000000000000e-01
2.244234909000e+00 2.244234909000e+00 -5.000000000000e-01
2.755765091000e+00 2.244234909000e+00 -5.000000000000e-01
2.755765091000e+00 2.755765091000e+00 -5.000000000000e-01
2.244234909000e+00 2.755765091000e+00 -5.000000000000e-01
7.141316008320e-01 7.141316008320e-01 -5.000000000000e-01
1.314642334730e+00 1.314642334730e+00 -5.000000000000e-01
1.819609643610e+00 1.819609643610e+00 -5.000000000000e-01
1.819609643610e+00 3.180390356390e+00 -5.000000000000e-01
1.314642334740e+00 3.685357665260e+00 -5.000000000000e-01
7.141316008360e-01 4.285868399160e+00 -5.000000000000e-01
0.000000000000e+00 3.750000000000e+00 -5.000000000000e-01
0.000000000000e+00 2.500000000000e+00 -5.000000000000e-01
0.000000000000e+00 1.250000000000e+00 -5.000000000000e-01
4.285868399170e+00 7.141316008320e-01 -5.000000000000e-01
3.685357665270e+00 1.314642334730e+00 -5.000000000000e-01
3.180390356390e+00 1.819609643610e+00 -5.000000000000e-01
1.250000000000e+00 0.000000000000e+00 -5.000000000000e-01
2.500000000000e+00 0.000000000000e+00 -5.000000000000e-01
3.750000000000e+00 0.000000000000e+00 -5.000000000000e-01
4.285868399170e+00 4.285868399170e+00 -5.000000000000e-01
3.685357665270e+00 3.685357665270e+00 -5.000000000000e-01
3.180390356390e+00 3.180390356390e+00 -5.000000000000e-01
5.000000000000e+00 1.250000000000e+00 -5.000000000000e-01
5.000000000000e+00 2.500000000000e+00 -5.000000000000e-01
5.000000000000e+00 3.750000000000e+00 -5.000000000000e-01
3.750000000000e+00 5.000000000000e+00 -5.000000000000e-01
2.500000000000e+00 5.000000000000e+00 -5.000000000000e-01
1.250000000000e+00 5.000000000000e+00 -5.000000000000e-01
9.560744151940e-01 2.677827143250e+00 -5.000000000000e-01
6.659597640160e-01 1.438876720610e+00 -5.000000000000e-01
2.309219871940e+00 9.522638293400e-01 -5.000000000000e-01
3.458157207860e+00 6.354750772000e-01 -5.000000000000e-01
4.043925584810e+00 2.322172856750e+00 -5.000000000000e-01
4.334040235980e+00 3.561123279390e+00 -5.000000000000e-01
2.318530875810e+00 4.048536535600e+00 -5.000000000000e-01
3.552396921680e+00 4.370927842320e+00 -5.000000000000e-01
2.500000000000e+00 2.500000000000e+00 -5.000000000000e-01
0.000000000000e+00 0.000000000000e+00 -1.000000000000e+00
5.000000000000e+00 0.000000000000e+00 -1.000000000000e+00
5.000000000000e+00 5.000000000000e+00 -1.000000000000e+00
0.000000000000e+00 5.000000000000e+00 -1.000000000000e+00
2.244234909000e+00 2.244234909000e+00 -1.000000000000e+00
2.755765091000e+00 2.244234909000e+00 -1.000000000000e+00
2.755765091000e+00 2.755765091000e+00 -1.000000000000e+00
2.244234909000e+00 2.755765091000e+00 -1.000000000000e+00
7.141316008320e-01 7.141316008320e-01 -1.000000000000e+00
1.314642334730e+00 1.314642334730e+00 -1.000000000000e+00
1.819609643610e+00 1.819609643610e+00 -1.000000000000e+00
1.819609643610e+00 3.180390356390e+00 -1.000000000000e+00
1.314642334740e+00 3.685357665260e+00 -1.000000000000e+00
7.141316008360e-01 4.285868399160e+00 -1.000000000000e+00
0.000000000000e+00 3.750000000000e+00 -1.000000000000e+00
0.000000000000e+00 2.500000000000e+00 -1.000000000000e+00
0.000000000000e+00 1.250000000000e+00 -1.000000000000e+00
4.285868399170e+00 7.141316008320e-01 -1.000000000000e+00
3.685357665270e+00 1.314642334730e+00 -1.000000000000e+00
3.180390356390e+00 1.819609643610e+00 -1.000000000000e+00
1.250000000000e+00 0.000000000000e+00 -1.000000000000e+00
2.500000000000e+00 0.000000000000e+00 -1.000000000000e+00
3.750000000000e+00 0.000000000000e+00 -1.000000000000e+00
4.285868399170e+00 4.285868399170e+00 -1.000000000000e+00
3.685357665270e+00 3.685357665270e+00 -1.000000000000e+00
3.180390356390e+00 3.180390356390e+00 -1.000000000000e+00
5.000000000000e+00 1.250000000000e+00 -1.000000000000e+00
5.000000000000e+00 2.500000000000e+00 -1.000000000000e+00
5.000000000000e+00 3.750000000000e+00 -1.000000000000e+00
3.750000000000e+00 5.000000000000e+00 -1.000000000000e+00
2.500000000000e+00 5.000000000000e+00 -1.000000000000e+00
1.250000000000e+00 5.000000000000e+00 -1.000000000000e+00
9.560744151940e-01 2.677827143250e+00 -1.000000000000e+00
6.659597640160e-01 1.438876720610e+00 -1.000000000000e+00
2.309219871940e+00 9.522638293400e-01 -1.000000000000e+00
3.458157207860e+00 6.354750772000e-01 -1.000000000000e+00
4.043925584810e+00 2.322172856750e+00 -1.000000000000e+00
4.334040235980e+00 3.561123279390e+00 -1.000000000000e+00
2.318530875810e+00 4.048536535600e+00 -1.000000000000e+00
3.552396921680e+00 4.370927842320e+00 -1.000000000000e+00
2.500000000000e+00 2.500000000000e+00 -1.000000000000e+00
0.000000000000e+00 0.000000000000e+00 -3.000000000000e+00
5.000000000000e+00 0.000000000000e+00 -3.000000000000e+00
5.000000000000e+00 5.000000000000e+00 -3.000000000000e+00
0.000000000000e+00 5.000000000000e+00 -3.000000000000e+00
2.244234909000e+00 2.244234909000e+00 -3.000000000000e+00
2.755765091000e+00 2.244234909000e+00 -3.000000000000e+00
2.755765091000e+00 2.755765091000e+00 -3.000000000000e+00
2.244234909000e+00 2.755765091000e+00 -3.000000000000e+00
7.141316008320e-01 7.141316008320e-01 -3.000000000000e+00
1.314642334730e+00 1.314642334730e+00 -3.000000000000e+00
1.819609643610e+00 1.819609643610e+00 -3.000000000000e+00
1.819609643610e+00 3.180390356390e+00 -3.000000000000e+00
1.314642334740e+00 3.685357665260e+00 -3.000000000000e+00
7.141316008360e-01 4.285868399160e+00 -3.000000000000e+00
0.000000000000e+00 3.750000000000e+00 -3.000000000000e+00
0.000000000000e+00 2.500000000000e+00 -3.000000000000e+00
0.000000000000e+00 1.250000000000e+00 -3.000000000000e+00
4.285868399170e+00 7.141316008320e-01 -3.000000000000e+00
3.685357665270e+00 1.314642334730e+00 -3.000000000000e+00
3.180390356390e+00 1.819609643610e+00 -3.000000000000e+00
1.250000000000e+00 0.000000000000e+00 -3.000000000000e+00
2.500000000000e+00 0.000000000000e+00 -3.000000000000e+00
3.750000000000e+00 0.000000000000e+00 -3.000000000000e+00
4.285868399170e+00 4.285868399170e+00 -3.000000000000e+00
3.685357665270e+00 3.685357665270e+00 -3.000000000000e+00
3.180390356390e+00 3.180390356390e+00 -3.000000000000e+00
5.000000000000e+00 1.250000000000e+00 -3.000000000000e+00
5.000000000000e+00 2.500000000000e+00 -3.000000000000e+00
5.000000000000e+00 3.750000000000e+00 -3.000000000000e+00
3.750000000000e+00 5.000000000000e+00 -3.000000000000e+00
2.500000000000e+00 5.000000000000e+00 -3.000000000000e+00
1.250000000000e+00 5.000000000000e+00 -3.000000000000e+00
9.560744151940e-01 2.677827143250e+00 -3.000000000000e+00
6.659597640160e-01 1.438876720610e+00 -3.000000000000e+00
2.309219871940e+00 9.522638293400e-01 -3.000000000000e+00
3.458157207860e+00 6.354750772000e-01 -3.000000000000e+00
4.043925584810e+00 2.322172856750e+00 -3.000000000000e+00
4.334040235980e+00 3.561123279390e+00 -3.000000000000e+00
2.318530875810e+00 4.048536535600e+00 -3.000000000000e+00
3.552396921680e+00 4.370927842320e+00 -3.000000000000e+00
2.500000000000e+00 2.500000000000e+00 -3.000000000000e+00
0.000000000000e+00 0.000000000000e+00 -5.000000000000e+00
5.000000000000e+00 0.000000000000e+00 -5.000000000000e+00
5.000000000000e+00 5.000000000000e+00 -5.000000000000e+00
0.000000000000e+00 5.000000000000e+00 -5.000000000000e+00
2.244234909000e+00 2.244234909000e+00 -5.000000000000e+00
[...]
POINT_DATA 1394
SCALARS TEMPERATURE1 double 1
LOOKUP_TABLE default
1.000000000000e+01
1.000000000000e+01
1.000000000000e+01
1.000000000000e+01
1.000000000000e+01
1.000000000000e+01
1.000000000000e+01
1.000000000000e+01
1.000000000000e+01
1.000000000000e+01
1.000000000000e+01
1.000000000000e+01
1.000000000000e+01
1.000000000000e+01
1.000000000000e+01
1.000000000000e+01
1.000000000000e+01
1.000000000000e+01
1.000000000000e+01
1.000000000000e+01
1.000000000000e+01
1.000000000000e+01
1.000000000000e+01
1.000000000000e+01
1.000000000000e+01
1.000000000000e+01
1.000000000000e+01
1.000000000000e+01
1.000000000000e+01
1.000000000000e+01
1.000000000000e+01
1.000000000000e+01
1.000000000000e+01
1.000000000000e+01
1.000000000000e+01
1.000000000000e+01
1.000000000000e+01
1.000000000000e+01
1.000000000000e+01
1.000000000000e+01
1.000000000000e+01
2.201837731928e+01
2.201895843605e+01
2.202076839848e+01
2.201521582703e+01
2.275201777336e+01
2.274634220227e+01
2.274553155048e+01
2.274342868612e+01
2.204165014969e+01
2.213023234846e+01
2.232493319627e+01
2.232760869979e+01
2.212566293731e+01
2.204233719042e+01
2.202834195635e+01
2.205396615722e+01
2.203519522331e+01
2.204171103133e+01
2.213007221634e+01
2.232148532814e+01
2.202919120150e+01
2.205370495327e+01
2.203449202662e+01
2.203890723457e+01
2.213575929652e+01
2.231897319703e+01
2.202855252615e+01
2.205296156955e+01
2.203632612647e+01
2.203603518351e+01
2.205368923518e+01
2.202795424491e+01
2.211902650206e+01
2.206585899816e+01
2.211906326047e+01
2.206562964465e+01
2.211961983257e+01
2.206682224407e+01
2.211840363786e+01
2.206437914653e+01
2.423595286303e+01
2.936462110204e+01
2.936373592851e+01
2.935668584737e+01
2.936894922195e+01
2.736352943146e+01
2.743729189896e+01
2.757597167360e+01
2.723100733014e+01
2.941439203695e+01
2.958197722406e+01
2.959251120311e+01
2.961557782949e+01
2.958154047915e+01
2.940884310548e+01
2.940985737246e+01
2.948224874978e+01
2.943719441260e+01
2.941463515794e+01
2.958083523830e+01
2.960701061341e+01
2.941024002513e+01
2.948374801524e+01
2.943542791032e+01
2.941996914908e+01
2.957878702259e+01
2.957616188545e+01
2.941037800602e+01
2.948508781849e+01
2.943551059197e+01
2.943556282452e+01
2.948362348166e+01
2.941070725873e+01
2.962351136479e+01
2.947068570317e+01
2.962096248155e+01
2.947387558222e+01
2.961976433876e+01
2.947337761626e+01
2.962092236088e+01
2.946921621237e+01
1.952365674560e+01
3.025879032044e+01
3.025731182595e+01
3.024923181684e+01
3.026412673505e+01
2.768530280083e+01
2.775343727743e+01
2.787598473891e+01
2.757222532573e+01
3.031616559768e+01
3.047931715662e+01
3.028504300915e+01
3.030292393427e+01
3.048436807224e+01
3.030882631757e+01
3.031308051478e+01
3.040316155991e+01
3.034326938018e+01
3.031635676549e+01
3.047977770344e+01
3.030541828484e+01
3.031353315572e+01
3.040439611844e+01
3.034164429318e+01
3.032426802697e+01
3.047246049198e+01
3.028424160495e+01
3.031401641469e+01
3.040638244920e+01
3.034176586829e+01
3.034137250283e+01
3.040472330927e+01
3.031437768656e+01
3.056638855708e+01
3.038285051530e+01
3.056303593598e+01
3.038760825804e+01
3.056035984787e+01
3.038508078396e+01
3.056274416020e+01
3.038098370846e+01
1.961974193816e+01
3.009173582728e+01
3.009030536064e+01
3.008271992115e+01
3.009658181319e+01
2.765353312242e+01
2.772126970352e+01
2.784435970763e+01
2.753889374653e+01
3.015133401212e+01
3.030881233919e+01
3.014296709868e+01
3.016114463037e+01
3.031298748012e+01
3.014482616507e+01
3.015094489563e+01
3.024052651778e+01
3.017864944253e+01
3.015141354472e+01
3.030903542850e+01
3.016172919789e+01
3.015129646657e+01
3.024180770770e+01
3.017699950550e+01
3.015840879533e+01
3.030271173512e+01
3.013941767570e+01
3.015163301263e+01
3.024365191713e+01
3.017702709007e+01
3.017675786356e+01
3.024198485764e+01
3.015209378430e+01
3.039002796938e+01
3.021733962065e+01
3.038697473156e+01
3.022219220394e+01
3.038491298246e+01
3.021948478124e+01
3.038691077680e+01
3.021561197916e+01
1.975207395747e+01
3.010850458915e+01
3.010711189474e+01
3.009994345364e+01
3.011309500552e+01
2.764443662907e+01
2.771033747427e+01
2.782968568451e+01
2.753349606474e+01
3.016545980889e+01
3.031031510776e+01
3.011878806265e+01
3.013581754885e+01
3.031519439299e+01
3.015913078266e+01
3.016595373025e+01
3.025207717589e+01
3.019204060007e+01
3.016551806301e+01
3.031066123459e+01
3.013746700235e+01
3.016630619592e+01
3.025327802322e+01
3.019049831739e+01
3.017252991130e+01
3.030371462040e+01
3.011654555764e+01
3.016664764005e+01
3.025510260958e+01
3.019047456448e+01
3.019022183249e+01
3.025348230703e+01
3.016706398934e+01
3.039337947419e+01
3.022837376701e+01
3.039042073313e+01
3.023319230270e+01
3.038838583592e+01
3.023030090594e+01
3.039043563055e+01
3.022674493453e+01
1.986375351433e+01
3.010645949561e+01
3.010509171742e+01
3.009828787189e+01
3.011080230542e+01
2.764951812993e+01
2.771404271110e+01
2.783087317188e+01
2.754084419602e+01
3.016213228250e+01
3.029675601574e+01
3.009216270426e+01
3.010843677754e+01
3.030196245651e+01
3.015609701517e+01
3.016393994048e+01
3.024769127413e+01
3.018835630486e+01
3.016214822376e+01
3.029714709496e+01
3.011046283772e+01
3.016426158000e+01
3.024884767528e+01
3.018688567879e+01
3.016899131767e+01
3.028995310673e+01
3.009030236364e+01
3.016457879246e+01
3.025063586856e+01
3.018679494021e+01
3.018657753482e+01
3.024903864287e+01
3.016499666729e+01
3.038013224830e+01
3.022280972459e+01
3.037730147556e+01
3.022764458729e+01
3.037541456647e+01
3.022456210098e+01
3.037742304960e+01
3.022128393488e+01
1.998264793839e+01
3.010433701071e+01
3.010298040733e+01
3.009626819881e+01
3.010864072248e+01
2.764663673186e+01
2.771068059235e+01
2.782656443559e+01
2.753887696785e+01
3.015897983608e+01
3.029005984612e+01
3.008060903077e+01
3.009661760861e+01
3.029539750139e+01
3.015299350871e+01
3.016097618770e+01
3.024340108269e+01
3.018495698608e+01
3.015899316862e+01
3.029046975385e+01
3.009883117401e+01
3.016129106489e+01
3.024453804207e+01
3.018351884463e+01
3.016583403788e+01
3.028315751613e+01
3.007897000820e+01
3.016161243924e+01
3.024631822329e+01
3.018340689998e+01
3.018319497814e+01
3.024473400598e+01
3.016202326127e+01
3.037335550813e+01
3.021856325482e+01
3.037055620646e+01
3.022336014513e+01
3.036867903024e+01
3.022026344724e+01
3.037069602985e+01
3.021707366178e+01
2.002001599171e+01
3.009387572407e+01
3.009263512087e+01
3.008732619276e+01
3.009725569436e+01
2.767697484437e+01
2.773516654119e+01
2.784022137897e+01
2.757912619900e+01
3.014225618614e+01
3.023345948061e+01
2.997473604330e+01
2.998770359303e+01
3.024005351232e+01
3.013734361005e+01
3.014874318295e+01
3.022068150366e+01
3.016643369405e+01
3.014213010355e+01
3.023404711509e+01
2.999149157857e+01
3.014895325164e+01
3.022163330490e+01
3.016529173571e+01
3.014837477096e+01
3.022577538360e+01
2.997481036214e+01
3.014920103223e+01
3.022326838353e+01
3.016493702710e+01
3.016485109540e+01
3.022179536205e+01
3.014959210631e+01
3.031710977580e+01
3.019235975235e+01
3.031479278440e+01
3.019710592665e+01
3.031341436552e+01
3.019339160681e+01
3.031530221107e+01
3.019126771169e+01
2.054857272204e+01
3.008589982952e+01
3.008474472836e+01
3.008040644322e+01
3.008865624010e+01
2.770523522161e+01
2.775914435227e+01
2.785620468947e+01
2.761478077767e+01
3.012943005248e+01
3.019264469314e+01
2.990062240712e+01
2.991142446558e+01
3.020009303641e+01
3.012525072526e+01
3.013886122032e+01
3.020297950749e+01
3.015220413985e+01
3.012921450135e+01
3.019335540130e+01
2.991632435188e+01
3.013899915019e+01
3.020379717050e+01
3.015127611615e+01
3.013505300641e+01
3.018443347919e+01
2.990193920441e+01
3.013920236044e+01
3.020532835518e+01
3.015075473981e+01
3.015075237220e+01
3.020394035020e+01
3.013957511784e+01
3.027611141117e+01
3.017259550819e+01
3.027413012999e+01
3.017726484031e+01
3.027307903066e+01
3.017316558053e+01
3.027488306328e+01
3.017178429650e+01
2.095256400362e+01
3.007968420314e+01
3.007859651652e+01
3.007498192875e+01
3.008197844022e+01
2.773924253898e+01
2.778976431303e+01
2.788051291463e+01
2.765463864478e+01
3.011945391212e+01
3.016193635014e+01
2.984765938097e+01
2.985684022204e+01
3.016995300518e+01
3.011583420822e+01
3.013100883855e+01
3.018907396747e+01
3.014110612247e+01
3.011917375539e+01
3.016272901856e+01
2.986249949817e+01
3.013109076364e+01
3.018979193318e+01
3.014033844453e+01
3.012468128220e+01
3.015339293072e+01
2.984984062248e+01
3.013126053749e+01
3.019123954592e+01
3.013969500949e+01
3.013975487965e+01
3.018991875748e+01
3.013162071677e+01
3.024473162093e+01
3.015732320611e+01
3.024300660321e+01
3.016191159552e+01
3.024220297007e+01
3.015755495088e+01
3.024393410928e+01
3.015672337744e+01
2.129647019233e+01
3.007491093273e+01
3.007387495378e+01
3.007077569146e+01
3.007688017579e+01
2.777456542839e+01
2.782250188879e+01
2.790844090446e+01
2.769443094349e+01
3.011182268120e+01
3.013959339249e+01
2.981167418347e+01
2.981969220590e+01
3.014795635708e+01
3.010861137768e+01
3.012481669162e+01
3.017831833714e+01
3.013259761787e+01
3.011149893771e+01
3.014043587851e+01
2.982583316924e+01
3.012485676665e+01
3.017896507992e+01
3.013194585062e+01
3.011674839943e+01
3.013086431251e+01
2.981441860680e+01
3.012500317705e+01
3.018034772462e+01
3.013121703921e+01
3.013132103961e+01
3.017907870245e+01
3.012535488351e+01
3.022141646353e+01
3.014577122588e+01
3.021987939484e+01
3.015027774088e+01
3.021925357730e+01
3.014576687998e+01
3.022092463842e+01
3.014532456501e+01
2.157878037913e+01
3.007147858412e+01
3.007047998616e+01
3.006771654009e+01
3.007323956167e+01
2.780920480822e+01
2.785528017133e+01
2.793776884277e+01
2.773228386891e+01
3.010636329917e+01
3.012462974663e+01
2.979015117556e+01
2.979740521488e+01
3.013315639546e+01
3.010342918654e+01
3.012022379244e+01
3.017051207236e+01
3.012649026229e+01
3.010601339798e+01
3.012549561639e+01
2.980379598631e+01
3.012023451886e+01
3.017111241739e+01
3.012591538636e+01
3.011107026632e+01
3.011583391258e+01
2.979320452017e+01
3.012036584422e+01
3.017244703793e+01
3.012513267445e+01
3.012526534174e+01
3.017121557148e+01
3.012071276097e+01
3.020531271578e+01
3.013761853222e+01
3.020390382958e+01
3.014204789702e+01
3.020339640853e+01
3.013746554737e+01
3.020501925550e+01
3.013727408378e+01
2.180123305112e+01
3.006927047037e+01
3.006829606371e+01
3.006570955595e+01
3.007092611526e+01
2.784163431248e+01
2.788651633613e+01
2.796680947349e+01
2.776676309934e+01
3.010288526574e+01
3.011623391256e+01
2.978116089092e+01
2.978800617115e+01
3.012477044756e+01
3.010011124880e+01
3.011711873633e+01
3.016541787967e+01
3.012257885774e+01
3.010252422429e+01
3.011710071108e+01
2.979444794085e+01
3.011711125408e+01
3.016599392161e+01
3.012204618388e+01
3.010744938629e+01
3.010746934963e+01
2.978430230548e+01
3.011723473804e+01
3.016729625181e+01
3.012123688758e+01
3.012138470846e+01
3.016608912462e+01
3.011758020165e+01
3.019569148938e+01
3.013254932297e+01
3.019435738400e+01
3.013690899310e+01
3.019391597940e+01
3.013232425609e+01
3.019550209225e+01
3.013226192277e+01
2.196507285390e+01
3.006822172108e+01
3.006725898113e+01
3.006470285337e+01
3.006986672985e+01
2.787111726309e+01
2.791543767210e+01
2.799472529679e+01
2.779718782210e+01
3.010128078947e+01
3.011392618079e+01
2.978358906546e+01
2.979035497498e+01
3.012233498450e+01
3.009855868089e+01
3.011544255021e+01
3.016290109836e+01
3.012074724269e+01
3.010092211820e+01
3.011477366661e+01
2.979666718651e+01
3.011542705199e+01
3.016347336642e+01
3.012022465755e+01
3.010577309439e+01
3.010527936236e+01
2.978661592849e+01
3.011554926469e+01
3.016475834654e+01
3.011941351801e+01
3.011956419744e+01
3.016356289855e+01
3.011589653857e+01
3.019211630114e+01
3.013038060292e+01
3.019080755673e+01
3.013467964749e+01
3.019038432816e+01
3.013015348747e+01
3.019194468493e+01
3.013010862821e+01
2.207138833784e+01
3.006837276850e+01
3.006740860667e+01
3.006472197260e+01
3.007011284969e+01
2.789828925542e+01
2.794271340732e+01
2.802224046573e+01
2.782415251746e+01
3.010159868401e+01
3.011812566906e+01
2.979848404712e+01
2.980552497505e+01
3.012625358637e+01
3.009880853186e+01
3.011518003579e+01
3.016299184314e+01
3.012104515424e+01
3.010125811068e+01
3.011893147300e+01
2.981151216658e+01
3.011516784215e+01
3.016358217365e+01
3.012049841709e+01
3.010609874804e+01
3.010969325002e+01
2.980118091561e+01
3.011529674840e+01
3.016486577043e+01
3.011971282724e+01
3.011985245379e+01
3.016366909288e+01
3.011564879055e+01
3.019494906800e+01
3.013121701527e+01
3.019361158538e+01
3.013546033920e+01
3.019315178483e+01
3.013106497369e+01
3.019469912371e+01
3.013091543816e+01
2.211964576867e+01
3.006850483750e+01
3.006753933643e+01
3.006482316504e+01
3.007026491487e+01
2.790255478155e+01
2.794703673421e+01
2.802671306377e+01
2.782825117126e+01
3.010183389930e+01
3.011923684037e+01
2.980168420746e+01
2.980879530586e+01
3.012730854773e+01
3.009902919484e+01
3.011531430788e+01
3.016328027804e+01
3.012130053522e+01
3.010149611134e+01
3.012003448564e+01
2.981470945078e+01
3.011530242731e+01
3.016387521559e+01
3.012074765904e+01
3.010633558501e+01
3.011084710894e+01
2.980430158380e+01
3.011543209650e+01
3.016515933098e+01
3.011996710431e+01
3.012010459583e+01
3.016396111377e+01
3.011578610341e+01
3.019584263629e+01
3.013161498212e+01
3.019449875189e+01
3.013585233039e+01
3.019403335924e+01
3.013147838790e+01
3.019557746920e+01
3.013130609368e+01
2.212032985487e+01
3.006863304538e+01
3.006766489028e+01
3.006489476436e+01
3.007043507308e+01
2.790294400246e+01
2.794761640448e+01
2.802750769540e+01
2.782857457378e+01
3.010200162094e+01
3.012072634036e+01
2.980520049309e+01
2.981240178442e+01
3.012874998864e+01
3.009915189569e+01
3.011526748186e+01
3.016340979895e+01
3.012149171094e+01
3.010167234170e+01
3.012151450969e+01
2.981827592579e+01
3.011526005878e+01
3.016401105962e+01
3.012093028897e+01
3.010653978939e+01
3.011236060334e+01
2.980778211217e+01
3.011539550055e+01
3.016530043826e+01
3.012015712932e+01
3.012029010984e+01
3.016409950380e+01
3.011574821431e+01
3.019716336129e+01
3.013198800903e+01
3.019579994982e+01
3.013621327929e+01
3.019530748714e+01
3.013187855907e+01
3.019686103167e+01
3.013166870981e+01
2.212136147636e+01
3.006973538673e+01
3.006876605385e+01
3.006598006461e+01
3.007151062144e+01
2.792810578956e+01
2.797265745188e+01
2.805296692108e+01
2.785279506648e+01
3.010408629417e+01
3.012537179966e+01
2.981718133601e+01
2.982457550051e+01
3.013318509380e+01
3.010127561435e+01
3.011729437119e+01
3.016644057514e+01
3.012366190070e+01
3.010374814160e+01
3.012614143265e+01
2.983011780376e+01
3.011728500178e+01
3.016705065813e+01
3.012307710586e+01
3.010851541786e+01
3.011721742180e+01
2.981938610673e+01
3.011740200075e+01
3.016832654969e+01
3.012232967771e+01
3.012245915735e+01
3.016712620285e+01
3.011776664217e+01
3.020127677225e+01
3.013491647394e+01
3.019992343076e+01
3.013916425704e+01
3.019947710668e+01
3.013483341977e+01
3.020097877201e+01
3.013456559614e+01
2.212031017816e+01
3.006664727506e+01
3.006565199417e+01
3.006264329288e+01
3.006876098994e+01
2.783574708078e+01
2.788136465357e+01
2.796104286108e+01
2.776334118996e+01
3.009771321301e+01
3.011383919944e+01
2.978566986893e+01
2.979273984117e+01
3.012222481298e+01
3.009459809999e+01
3.011077614769e+01
3.015701780087e+01
3.011740976309e+01
3.009742762264e+01
3.011464000105e+01
2.979931758447e+01
3.011075978865e+01
3.015764010851e+01
3.011688210703e+01
3.010268098526e+01
3.010499640117e+01
2.978909385620e+01
3.011097440292e+01
3.015900227870e+01
3.011602794884e+01
3.011616161687e+01
3.015776115232e+01
3.011132065934e+01
3.019112923350e+01
3.012620968127e+01
3.018966936481e+01
3.013036233194e+01
3.018896678709e+01
3.012611361607e+01
3.019069348738e+01
3.012595316894e+01
2.208770920360e+01
3.003876609931e+01
3.003818831954e+01
3.003600294267e+01
3.004035234131e+01
2.826770882222e+01
2.830740646407e+01
2.838739844063e+01
2.818504970155e+01
3.005632648838e+01
3.006924526801e+01
2.984831371540e+01
2.985652886619e+01
3.007483978190e+01
3.005387976754e+01
3.006316332211e+01
3.009140285121e+01
3.006869204375e+01
3.005616091670e+01
3.006964586354e+01
2.985784646135e+01
3.006317331061e+01
3.009177122271e+01
3.006834926398e+01
3.006012947169e+01
3.006303019116e+01
2.984523685207e+01
3.006325784366e+01
3.009263139920e+01
3.006781391127e+01
3.006788475612e+01
3.009187071348e+01
3.006345143374e+01
3.011957856436e+01
3.007386738090e+01
3.011872299794e+01
3.007637568432e+01
3.011849148597e+01
3.007385435073e+01
3.011956491193e+01
3.007364971802e+01
2.261095337865e+01
3.002755679997e+01
3.002720730063e+01
3.002682192665e+01
3.002749652421e+01
2.978140923274e+01
2.978369284873e+01
2.977301536586e+01
2.980473073949e+01
3.004489388182e+01
3.005723551431e+01
2.997951256751e+01
2.997734400180e+01
3.005937454559e+01
3.004456316477e+01
3.005023897550e+01
3.007167367741e+01
3.005143226086e+01
3.004477431644e+01
3.005760695898e+01
2.998279249081e+01
3.005032280471e+01
3.007190983960e+01
3.005115081200e+01
3.004540471362e+01
3.005545452059e+01
2.998689232030e+01
3.005037289261e+01
3.007230486008e+01
3.005104717127e+01
3.005110333593e+01
3.007190617050e+01
3.005044912751e+01
3.008196086983e+01
3.005888043309e+01
3.008134972315e+01
3.006056383943e+01
3.008092624524e+01
3.005891395528e+01
3.008142040615e+01
3.005871006824e+01
3.070140099108e+01
3.001786195664e+01
3.001775051479e+01
3.001801019329e+01
3.001718119615e+01
3.009334748748e+01
3.009107650068e+01
3.008816376363e+01
3.009515721414e+01
3.003214662760e+01
3.004581995946e+01
3.004980476161e+01
3.004959352857e+01
3.004557778302e+01
3.003268252040e+01
3.003541521905e+01
3.005050301475e+01
3.003503678612e+01
3.003196185264e+01
3.004593433407e+01
3.004976202393e+01
3.003542606619e+01
3.005059102500e+01
3.003481960521e+01
3.003123336300e+01
3.004646582372e+01
3.005048009847e+01
3.003524980191e+01
3.005059686552e+01
3.003495360725e+01
3.003497745899e+01
3.005048629547e+01
3.003535219557e+01
3.005398047138e+01
3.004271484954e+01
3.005397204038e+01
3.004366989400e+01
3.005436230961e+01
3.004267971356e+01
3.005409418402e+01
3.004245611730e+01
2.991592560877e+01
3.001066015972e+01
3.001060925873e+01
3.001069773442e+01
3.001027000286e+01
3.003891097040e+01
3.003948743589e+01
3.004104442510e+01
3.003696310073e+01
3.001959745866e+01
3.003256278825e+01
3.004360795660e+01
3.004406373997e+01
3.003223235181e+01
3.001982025023e+01
3.002070714304e+01
3.003045614819e+01
3.002116935422e+01
3.001950756540e+01
3.003258330243e+01
3.004360477681e+01
3.002074509485e+01
3.003051355099e+01
3.002100023291e+01
3.001909286335e+01
3.003306597918e+01
3.004313331959e+01
3.002062564579e+01
3.003050244389e+01
3.002113226825e+01
3.002113547326e+01
3.003045129277e+01
3.002066849672e+01
3.003665607263e+01
3.002674904540e+01
3.003662422204e+01
3.002727900755e+01
3.003685693403e+01
3.002682627259e+01
3.003667790460e+01
3.002655128844e+01
3.007396486306e+01
3.000544216200e+01
3.000542194143e+01
3.000545152069e+01
3.000523764481e+01
3.002944354697e+01
3.002953566269e+01
3.002958657437e+01
3.002954205056e+01
3.001008844202e+01
3.001883013537e+01
3.002663248693e+01
3.002682374180e+01
3.001863140527e+01
3.001014362367e+01
3.001014532075e+01
3.001544561561e+01
3.001073646875e+01
3.001006027404e+01
3.001884098901e+01
3.002671105224e+01
3.001019122600e+01
3.001546969893e+01
3.001063782962e+01
3.000987275891e+01
3.001911866796e+01
3.002663015983e+01
3.001013591005e+01
3.001546435763e+01
3.001074252364e+01
3.001073130705e+01
3.001545092547e+01
3.001013619362e+01
3.002091650736e+01
3.001411394319e+01
3.002086563310e+01
3.001436137255e+01
3.002092389944e+01
3.001419239133e+01
3.002085258468e+01
3.001398383206e+01
3.002689294727e+01
2.999951267410e+01
2.999951463218e+01
2.999950956094e+01
2.999953483689e+01
2.999735603868e+01
2.999735425909e+01
2.999738499316e+01
2.999729234774e+01
2.999904521849e+01
2.999823246900e+01
2.999763130655e+01
2.999762007886e+01
2.999824742198e+01
2.999903853379e+01
2.999902577794e+01
2.999849760036e+01
2.999897586461e+01
2.999904826297e+01
2.999823090929e+01
2.999762113463e+01
2.999902112173e+01
2.999849497066e+01
2.999898553941e+01
2.999906671778e+01