# vtk DataFile Version 3.0
Unstructured Grid from OpenGeoSys
ASCII
DATASET UNSTRUCTURED_GRID
FIELD TimesAndCycles 2
TIME 1 1 double
3.600000000000e+03
CYLCE 1 1 long
1
POINTS 1394 double
0.000000000000e+00 0.000000000000e+00 0.000000000000e+00
5.000000000000e+00 0.000000000000e+00 0.000000000000e+00
5.000000000000e+00 5.000000000000e+00 0.000000000000e+00
0.000000000000e+00 5.000000000000e+00 0.000000000000e+00
2.244234909000e+00 2.244234909000e+00 0.000000000000e+00
2.755765091000e+00 2.244234909000e+00 0.000000000000e+00
2.755765091000e+00 2.755765091000e+00 0.000000000000e+00
2.244234909000e+00 2.755765091000e+00 0.000000000000e+00
7.141316008320e-01 7.141316008320e-01 0.000000000000e+00
1.314642334730e+00 1.314642334730e+00 0.000000000000e+00
1.819609643610e+00 1.819609643610e+00 0.000000000000e+00
1.819609643610e+00 3.180390356390e+00 0.000000000000e+00
1.314642334740e+00 3.685357665260e+00 0.000000000000e+00
7.141316008360e-01 4.285868399160e+00 0.000000000000e+00
0.000000000000e+00 3.750000000000e+00 0.000000000000e+00
0.000000000000e+00 2.500000000000e+00 0.000000000000e+00
0.000000000000e+00 1.250000000000e+00 0.000000000000e+00
4.285868399170e+00 7.141316008320e-01 0.000000000000e+00
3.685357665270e+00 1.314642334730e+00 0.000000000000e+00
3.180390356390e+00 1.819609643610e+00 0.000000000000e+00
1.250000000000e+00 0.000000000000e+00 0.000000000000e+00
2.500000000000e+00 0.000000000000e+00 0.000000000000e+00
3.750000000000e+00 0.000000000000e+00 0.000000000000e+00
4.285868399170e+00 4.285868399170e+00 0.000000000000e+00
3.685357665270e+00 3.685357665270e+00 0.000000000000e+00
3.180390356390e+00 3.180390356390e+00 0.000000000000e+00
5.000000000000e+00 1.250000000000e+00 0.000000000000e+00
5.000000000000e+00 2.500000000000e+00 0.000000000000e+00
5.000000000000e+00 3.750000000000e+00 0.000000000000e+00
3.750000000000e+00 5.000000000000e+00 0.000000000000e+00
2.500000000000e+00 5.000000000000e+00 0.000000000000e+00
1.250000000000e+00 5.000000000000e+00 0.000000000000e+00
9.560744151940e-01 2.677827143250e+00 0.000000000000e+00
6.659597640160e-01 1.438876720610e+00 0.000000000000e+00
2.309219871940e+00 9.522638293400e-01 0.000000000000e+00
3.458157207860e+00 6.354750772000e-01 0.000000000000e+00
4.043925584810e+00 2.322172856750e+00 0.000000000000e+00
4.334040235980e+00 3.561123279390e+00 0.000000000000e+00
2.318530875810e+00 4.048536535600e+00 0.000000000000e+00
3.552396921680e+00 4.370927842320e+00 0.000000000000e+00
2.500000000000e+00 2.500000000000e+00 0.000000000000e+00
0.000000000000e+00 0.000000000000e+00 -5.000000000000e-01
5.000000000000e+00 0.000000000000e+00 -5.000000000000e-01
5.000000000000e+00 5.000000000000e+00 -5.000000000000e-01
0.000000000000e+00 5.000000000000e+00 -5.000000000000e-01
2.244234909000e+00 2.244234909000e+00 -5.000000000000e-01
2.755765091000e+00 2.244234909000e+00 -5.000000000000e-01
2.755765091000e+00 2.755765091000e+00 -5.000000000000e-01
2.244234909000e+00 2.755765091000e+00 -5.000000000000e-01
7.141316008320e-01 7.141316008320e-01 -5.000000000000e-01
1.314642334730e+00 1.314642334730e+00 -5.000000000000e-01
1.819609643610e+00 1.819609643610e+00 -5.000000000000e-01
1.819609643610e+00 3.180390356390e+00 -5.000000000000e-01
1.314642334740e+00 3.685357665260e+00 -5.000000000000e-01
7.141316008360e-01 4.285868399160e+00 -5.000000000000e-01
0.000000000000e+00 3.750000000000e+00 -5.000000000000e-01
0.000000000000e+00 2.500000000000e+00 -5.000000000000e-01
0.000000000000e+00 1.250000000000e+00 -5.000000000000e-01
4.285868399170e+00 7.141316008320e-01 -5.000000000000e-01
3.685357665270e+00 1.314642334730e+00 -5.000000000000e-01
3.180390356390e+00 1.819609643610e+00 -5.000000000000e-01
1.250000000000e+00 0.000000000000e+00 -5.000000000000e-01
2.500000000000e+00 0.000000000000e+00 -5.000000000000e-01
3.750000000000e+00 0.000000000000e+00 -5.000000000000e-01
4.285868399170e+00 4.285868399170e+00 -5.000000000000e-01
3.685357665270e+00 3.685357665270e+00 -5.000000000000e-01
3.180390356390e+00 3.180390356390e+00 -5.000000000000e-01
5.000000000000e+00 1.250000000000e+00 -5.000000000000e-01
5.000000000000e+00 2.500000000000e+00 -5.000000000000e-01
5.000000000000e+00 3.750000000000e+00 -5.000000000000e-01
3.750000000000e+00 5.000000000000e+00 -5.000000000000e-01
2.500000000000e+00 5.000000000000e+00 -5.000000000000e-01
1.250000000000e+00 5.000000000000e+00 -5.000000000000e-01
9.560744151940e-01 2.677827143250e+00 -5.000000000000e-01
6.659597640160e-01 1.438876720610e+00 -5.000000000000e-01
2.309219871940e+00 9.522638293400e-01 -5.000000000000e-01
3.458157207860e+00 6.354750772000e-01 -5.000000000000e-01
4.043925584810e+00 2.322172856750e+00 -5.000000000000e-01
4.334040235980e+00 3.561123279390e+00 -5.000000000000e-01
2.318530875810e+00 4.048536535600e+00 -5.000000000000e-01
3.552396921680e+00 4.370927842320e+00 -5.000000000000e-01
2.500000000000e+00 2.500000000000e+00 -5.000000000000e-01
0.000000000000e+00 0.000000000000e+00 -1.000000000000e+00
5.000000000000e+00 0.000000000000e+00 -1.000000000000e+00
5.000000000000e+00 5.000000000000e+00 -1.000000000000e+00
0.000000000000e+00 5.000000000000e+00 -1.000000000000e+00
2.244234909000e+00 2.244234909000e+00 -1.000000000000e+00
2.755765091000e+00 2.244234909000e+00 -1.000000000000e+00
2.755765091000e+00 2.755765091000e+00 -1.000000000000e+00
2.244234909000e+00 2.755765091000e+00 -1.000000000000e+00
7.141316008320e-01 7.141316008320e-01 -1.000000000000e+00
1.314642334730e+00 1.314642334730e+00 -1.000000000000e+00
1.819609643610e+00 1.819609643610e+00 -1.000000000000e+00
1.819609643610e+00 3.180390356390e+00 -1.000000000000e+00
1.314642334740e+00 3.685357665260e+00 -1.000000000000e+00
7.141316008360e-01 4.285868399160e+00 -1.000000000000e+00
0.000000000000e+00 3.750000000000e+00 -1.000000000000e+00
0.000000000000e+00 2.500000000000e+00 -1.000000000000e+00
0.000000000000e+00 1.250000000000e+00 -1.000000000000e+00
4.285868399170e+00 7.141316008320e-01 -1.000000000000e+00
3.685357665270e+00 1.314642334730e+00 -1.000000000000e+00
3.180390356390e+00 1.819609643610e+00 -1.000000000000e+00
1.250000000000e+00 0.000000000000e+00 -1.000000000000e+00
2.500000000000e+00 0.000000000000e+00 -1.000000000000e+00
3.750000000000e+00 0.000000000000e+00 -1.000000000000e+00
4.285868399170e+00 4.285868399170e+00 -1.000000000000e+00
3.685357665270e+00 3.685357665270e+00 -1.000000000000e+00
3.180390356390e+00 3.180390356390e+00 -1.000000000000e+00
5.000000000000e+00 1.250000000000e+00 -1.000000000000e+00
5.000000000000e+00 2.500000000000e+00 -1.000000000000e+00
5.000000000000e+00 3.750000000000e+00 -1.000000000000e+00
3.750000000000e+00 5.000000000000e+00 -1.000000000000e+00
2.500000000000e+00 5.000000000000e+00 -1.000000000000e+00
1.250000000000e+00 5.000000000000e+00 -1.000000000000e+00
9.560744151940e-01 2.677827143250e+00 -1.000000000000e+00
6.659597640160e-01 1.438876720610e+00 -1.000000000000e+00
2.309219871940e+00 9.522638293400e-01 -1.000000000000e+00
3.458157207860e+00 6.354750772000e-01 -1.000000000000e+00
4.043925584810e+00 2.322172856750e+00 -1.000000000000e+00
4.334040235980e+00 3.561123279390e+00 -1.000000000000e+00
2.318530875810e+00 4.048536535600e+00 -1.000000000000e+00
3.552396921680e+00 4.370927842320e+00 -1.000000000000e+00
2.500000000000e+00 2.500000000000e+00 -1.000000000000e+00
0.000000000000e+00 0.000000000000e+00 -3.000000000000e+00
5.000000000000e+00 0.000000000000e+00 -3.000000000000e+00
5.000000000000e+00 5.000000000000e+00 -3.000000000000e+00
0.000000000000e+00 5.000000000000e+00 -3.000000000000e+00
2.244234909000e+00 2.244234909000e+00 -3.000000000000e+00
2.755765091000e+00 2.244234909000e+00 -3.000000000000e+00
2.755765091000e+00 2.755765091000e+00 -3.000000000000e+00
2.244234909000e+00 2.755765091000e+00 -3.000000000000e+00
7.141316008320e-01 7.141316008320e-01 -3.000000000000e+00
1.314642334730e+00 1.314642334730e+00 -3.000000000000e+00
1.819609643610e+00 1.819609643610e+00 -3.000000000000e+00
1.819609643610e+00 3.180390356390e+00 -3.000000000000e+00
1.314642334740e+00 3.685357665260e+00 -3.000000000000e+00
7.141316008360e-01 4.285868399160e+00 -3.000000000000e+00
0.000000000000e+00 3.750000000000e+00 -3.000000000000e+00
0.000000000000e+00 2.500000000000e+00 -3.000000000000e+00
0.000000000000e+00 1.250000000000e+00 -3.000000000000e+00
4.285868399170e+00 7.141316008320e-01 -3.000000000000e+00
3.685357665270e+00 1.314642334730e+00 -3.000000000000e+00
3.180390356390e+00 1.819609643610e+00 -3.000000000000e+00
1.250000000000e+00 0.000000000000e+00 -3.000000000000e+00
2.500000000000e+00 0.000000000000e+00 -3.000000000000e+00
3.750000000000e+00 0.000000000000e+00 -3.000000000000e+00
4.285868399170e+00 4.285868399170e+00 -3.000000000000e+00
3.685357665270e+00 3.685357665270e+00 -3.000000000000e+00
3.180390356390e+00 3.180390356390e+00 -3.000000000000e+00
5.000000000000e+00 1.250000000000e+00 -3.000000000000e+00
5.000000000000e+00 2.500000000000e+00 -3.000000000000e+00
5.000000000000e+00 3.750000000000e+00 -3.000000000000e+00
3.750000000000e+00 5.000000000000e+00 -3.000000000000e+00
2.500000000000e+00 5.000000000000e+00 -3.000000000000e+00
1.250000000000e+00 5.000000000000e+00 -3.000000000000e+00
9.560744151940e-01 2.677827143250e+00 -3.000000000000e+00
6.659597640160e-01 1.438876720610e+00 -3.000000000000e+00
2.309219871940e+00 9.522638293400e-01 -3.000000000000e+00
3.458157207860e+00 6.354750772000e-01 -3.000000000000e+00
4.043925584810e+00 2.322172856750e+00 -3.000000000000e+00
4.334040235980e+00 3.561123279390e+00 -3.000000000000e+00
2.318530875810e+00 4.048536535600e+00 -3.000000000000e+00
3.552396921680e+00 4.370927842320e+00 -3.000000000000e+00
2.500000000000e+00 2.500000000000e+00 -3.000000000000e+00
0.000000000000e+00 0.000000000000e+00 -5.000000000000e+00
5.000000000000e+00 0.000000000000e+00 -5.000000000000e+00
5.000000000000e+00 5.000000000000e+00 -5.000000000000e+00
0.000000000000e+00 5.000000000000e+00 -5.000000000000e+00
2.244234909000e+00 2.244234909000e+00 -5.000000000000e+00
[...]
POINT_DATA 1394
SCALARS TEMPERATURE1 double 1
LOOKUP_TABLE default
1.000000000000e+01
1.000000000000e+01
1.000000000000e+01
1.000000000000e+01
1.000000000000e+01
1.000000000000e+01
1.000000000000e+01
1.000000000000e+01
1.000000000000e+01
1.000000000000e+01
1.000000000000e+01
1.000000000000e+01
1.000000000000e+01
1.000000000000e+01
1.000000000000e+01
1.000000000000e+01
1.000000000000e+01
1.000000000000e+01
1.000000000000e+01
1.000000000000e+01
1.000000000000e+01
1.000000000000e+01
1.000000000000e+01
1.000000000000e+01
1.000000000000e+01
1.000000000000e+01
1.000000000000e+01
1.000000000000e+01
1.000000000000e+01
1.000000000000e+01
1.000000000000e+01
1.000000000000e+01
1.000000000000e+01
1.000000000000e+01
1.000000000000e+01
1.000000000000e+01
1.000000000000e+01
1.000000000000e+01
1.000000000000e+01
1.000000000000e+01
1.000000000000e+01
1.773758045608e+01
1.773672838700e+01
1.772884995969e+01
1.773226024917e+01
2.177203969019e+01
2.180092883242e+01
2.189250966251e+01
2.165817096760e+01
1.802279015247e+01
1.894771444272e+01
2.058026341567e+01
2.062710520548e+01
1.890575919074e+01
1.802079981117e+01
1.795386137364e+01
1.829405910329e+01
1.804452694365e+01
1.802267513846e+01
1.894387235600e+01
2.057500876284e+01
1.795703180655e+01
1.829607641026e+01
1.803606772321e+01
1.800884024695e+01
1.898976126443e+01
2.052765403650e+01
1.795336724584e+01
1.829467131019e+01
1.804667641419e+01
1.804446964872e+01
1.829523310159e+01
1.795397465570e+01
1.891615177516e+01
1.831057259848e+01
1.891146349983e+01
1.831786666790e+01
1.891344440510e+01
1.832310112606e+01
1.890642345734e+01
1.829929723169e+01
1.997029345132e+01
2.601864160339e+01
2.601672942365e+01
2.600344350153e+01
2.600616229547e+01
3.739703846317e+01
3.736167788725e+01
3.731348522914e+01
3.744572006972e+01
2.659673714504e+01
2.842606329052e+01
3.191275894484e+01
3.197913657463e+01
2.833655022952e+01
2.659737505383e+01
2.646717569810e+01
2.714224712752e+01
2.663698308795e+01
2.659641566903e+01
2.841855459662e+01
3.189165200378e+01
2.647311146303e+01
2.714637163754e+01
2.662018259671e+01
2.656246595362e+01
2.851785800616e+01
3.184220563070e+01
2.646607479372e+01
2.714325900682e+01
2.664153374391e+01
2.663727871710e+01
2.714450080655e+01
2.646768257440e+01
2.832493011877e+01
2.716819748793e+01
2.831547863723e+01
2.718244921758e+01
2.831834038485e+01
2.719304995660e+01
2.830383167769e+01
2.714624400007e+01
5.083922765729e+01
3.040597743648e+01
3.040336011390e+01
3.039073754407e+01
3.039162227756e+01
4.104687089394e+01
4.102929716917e+01
4.101740960651e+01
4.105674091109e+01
3.103864709489e+01
3.293533745521e+01
3.632033242071e+01
3.639002931458e+01
3.284865189425e+01
3.103962126550e+01
3.091574476084e+01
3.165645212596e+01
3.108958115146e+01
3.103766355640e+01
3.292862089622e+01
3.630396144442e+01
3.092184322296e+01
3.166046204310e+01
3.107172691610e+01
3.100362887498e+01
3.302632696093e+01
3.625042792684e+01
3.091405977904e+01
3.165770063075e+01
3.109411862888e+01
3.108967194243e+01
3.165878591180e+01
3.091615959447e+01
3.289047450945e+01
3.165650591282e+01
3.288039061200e+01
3.167477420738e+01
3.288430380412e+01
3.168172723084e+01
3.286957144902e+01
3.163336244676e+01
5.172346024848e+01
3.254595047813e+01
3.254324764009e+01
3.253185159868e+01
3.253285957762e+01
4.221849860873e+01
4.220086251941e+01
4.218672920593e+01
4.223113550451e+01
3.313296176160e+01
3.486355632708e+01
3.792361218327e+01
3.798635761750e+01
3.478511546546e+01
3.313438124373e+01
3.302531575771e+01
3.371176045452e+01
3.318254184549e+01
3.313182414283e+01
3.485760203366e+01
3.790907132945e+01
3.303062624823e+01
3.371537196337e+01
3.316610284762e+01
3.310060705840e+01
3.494649242545e+01
3.786173289015e+01
3.302340387081e+01
3.371301067113e+01
3.318656360888e+01
3.318250908148e+01
3.371392382451e+01
3.302571530414e+01
3.483296910280e+01
3.370330507305e+01
3.482370920546e+01
3.372086367539e+01
3.482760751483e+01
3.372623732487e+01
3.481414360744e+01
3.368221574964e+01
5.213235825795e+01
3.339283929736e+01
3.339027858680e+01
3.337925553669e+01
3.338040279030e+01
4.271654309534e+01
4.269963246517e+01
4.268685908063e+01
4.272729908711e+01
3.395446128628e+01
3.561764169197e+01
3.856991238910e+01
3.863053394692e+01
3.554197183597e+01
3.395576094359e+01
3.385007019146e+01
3.450693263745e+01
3.400144900060e+01
3.395340425986e+01
3.561185136780e+01
3.855570948452e+01
3.385515920067e+01
3.451039498473e+01
3.398567175267e+01
3.392344702034e+01
3.569752275422e+01
3.850975327725e+01
3.384824275222e+01
3.450810726279e+01
3.400534494993e+01
3.400144738590e+01
3.450901986961e+01
3.385045947573e+01
3.558483882686e+01
3.450082621967e+01
3.557594958607e+01
3.451744956316e+01
3.557965477352e+01
3.452290883924e+01
3.556671748711e+01
3.448058790713e+01
5.224461646924e+01
3.367078089103e+01
3.366827996868e+01
3.365744559953e+01
3.365849841546e+01
4.284980322047e+01
4.283302627631e+01
4.282035508141e+01
4.286039383257e+01
3.422331390383e+01
3.586040027407e+01
3.876653354033e+01
3.882618934328e+01
3.578591394059e+01
3.422457116758e+01
3.412036926415e+01
3.476662859917e+01
3.426941710462e+01
3.422228562388e+01
3.585470013683e+01
3.875256448775e+01
3.412540335680e+01
3.477004012188e+01
3.425389546291e+01
3.419279440519e+01
3.593901173614e+01
3.870734961395e+01
3.411859933246e+01
3.476777812261e+01
3.427326070578e+01
3.426942337757e+01
3.476867836428e+01
3.412074879804e+01
3.582793273251e+01
3.476092522779e+01
3.581918711794e+01
3.477726341332e+01
3.582281545298e+01
3.478265624285e+01
3.581008048319e+01
3.474099325773e+01
5.224332575891e+01
3.373119378936e+01
3.372871945172e+01
3.371793447418e+01
3.371900142254e+01
4.285764219235e+01
4.284093321523e+01
4.282816966957e+01
4.286839757221e+01
3.427967310903e+01
3.590587601246e+01
3.879489313486e+01
3.885416252143e+01
3.583182310488e+01
3.428090517409e+01
3.417727022355e+01
3.481878825459e+01
3.432536851798e+01
3.427866112192e+01
3.590020469015e+01
3.878096557708e+01
3.418227958477e+01
3.482218508673e+01
3.430995803594e+01
3.424935347434e+01
3.598399548591e+01
3.873602547441e+01
3.417552669030e+01
3.481993027978e+01
3.432918460947e+01
3.432537164036e+01
3.482082145667e+01
3.417764719774e+01
3.587301402005e+01
3.481342997103e+01
3.586433433594e+01
3.482962448974e+01
3.586792756698e+01
3.483502033629e+01
3.585526993379e+01
3.479363029057e+01
5.220247166101e+01
3.344713948242e+01
3.344473810066e+01
3.343396570368e+01
3.343514093654e+01
4.253337018281e+01
4.251613191350e+01
4.250265776211e+01
4.254458475120e+01
3.398794652950e+01
3.559796041498e+01
3.847097990274e+01
3.852977766894e+01
3.552428910805e+01
3.398910398612e+01
3.388575454082e+01
3.451827800792e+01
3.403259191899e+01
3.398699185142e+01
3.559227672850e+01
3.845692757384e+01
3.389073878073e+01
3.452166648272e+01
3.401736862910e+01
3.395792783225e+01
3.567549879434e+01
3.841227427492e+01
3.388408229037e+01
3.451940001712e+01
3.403637525190e+01
3.403259835277e+01
3.452028510923e+01
3.388612976407e+01
3.556187927691e+01
3.451475830192e+01
3.555331625193e+01
3.453057659565e+01
3.555681838081e+01
3.453616246983e+01
3.554425925131e+01
3.449516701548e+01
5.186239258201e+01
3.318798897893e+01
3.318564616573e+01
3.317488175693e+01
3.317614903658e+01
4.224389478659e+01
4.222627635285e+01
4.221209121148e+01
4.225577457860e+01
3.372263726625e+01
3.531977352114e+01
3.818038841746e+01
3.823879403197e+01
3.524640174415e+01
3.372373345406e+01
3.362059468997e+01
3.424589790767e+01
3.376643496847e+01
3.372172930161e+01
3.531407953556e+01
3.816622551718e+01
3.362555868399e+01
3.424928037320e+01
3.375136089740e+01
3.369285924172e+01
3.539685256045e+01
3.812182028550e+01
3.361898020312e+01
3.424700433501e+01
3.377019167459e+01
3.376644383022e+01
3.424788468976e+01
3.362096939839e+01
3.528104529609e+01
3.424388333021e+01
3.527257361894e+01
3.425939689794e+01
3.527599968211e+01
3.426514193976e+01
3.526352057372e+01
3.422445979211e+01
5.156418689036e+01
3.299313630705e+01
3.299084510437e+01
3.298010307162e+01
3.298144504922e+01
4.201148549405e+01
4.199355964469e+01
4.197883477466e+01
4.202382772688e+01
3.352193876894e+01
3.510619655403e+01
3.795262144064e+01
3.801062726780e+01
3.503317270651e+01
3.352298401354e+01
3.342016059595e+01
3.403861120056e+01
3.356497184778e+01
3.352107046673e+01
3.510050123956e+01
3.793838602988e+01
3.342509997937e+01
3.404198328895e+01
3.355004202834e+01
3.349240131064e+01
3.518279056840e+01
3.789424149334e+01
3.341859494603e+01
3.403970257226e+01
3.356870197809e+01
3.356498345354e+01
3.404057857097e+01
3.342053423450e+01
3.506531853346e+01
3.403784962936e+01
3.505693434203e+01
3.405308840219e+01
3.506029355374e+01
3.405895819811e+01
3.504789789304e+01
3.401859215977e+01
5.131208439703e+01
3.284211444321e+01
3.283986648666e+01
3.282914960287e+01
3.283055271723e+01
4.182465112133e+01
4.180648463392e+01
4.179131895430e+01
4.183737918024e+01
3.336582959842e+01
3.493864293761e+01
3.777183892257e+01
3.782948388929e+01
3.486594600353e+01
3.336683329542e+01
3.326432662993e+01
3.387681418497e+01
3.340821254933e+01
3.336499404443e+01
3.493294961149e+01
3.775755190219e+01
3.326924221844e+01
3.388017535097e+01
3.339340897775e+01
3.333650646004e+01
3.501479674245e+01
3.771364752657e+01
3.326280098558e+01
3.387789243318e+01
3.341191908565e+01
3.340822684356e+01
3.387876488037e+01
3.326469933578e+01
3.489602689884e+01
3.387707870336e+01
3.488771850418e+01
3.389208347917e+01
3.489102111148e+01
3.389805282127e+01
3.487870144177e+01
3.385796869752e+01
5.110372951450e+01
3.273406304745e+01
3.273185006322e+01
3.272116094424e+01
3.272261124864e+01
4.168249002376e+01
4.166414612601e+01
4.164864788825e+01
4.169550658504e+01
3.325345007548e+01
3.481625208529e+01
3.763717670131e+01
3.769450101759e+01
3.474386067560e+01
3.325442153065e+01
3.315223317673e+01
3.375964796033e+01
3.329529729054e+01
3.325264038281e+01
3.481056405252e+01
3.762285923930e+01
3.315712601002e+01
3.376299775687e+01
3.328060206715e+01
3.322431473114e+01
3.489201054679e+01
3.757917269038e+01
3.315073889200e+01
3.376071501870e+01
3.329898318860e+01
3.329531412928e+01
3.376158460078e+01
3.315260499664e+01
3.477231045597e+01
3.376071121057e+01
3.476406645805e+01
3.377552291973e+01
3.476732290287e+01
3.378156624767e+01
3.475507145904e+01
3.374172984717e+01
5.093833308081e+01
3.266605226063e+01
3.266386587121e+01
3.265320555043e+01
3.265468964911e+01
4.158320095233e+01
4.156473899373e+01
4.154901162876e+01
4.159641301987e+01
3.318192142757e+01
3.473631353879e+01
3.754626745870e+01
3.760331774967e+01
3.466419726548e+01
3.318286987734e+01
3.308098905970e+01
3.368428067520e+01
3.322335068492e+01
3.318113075366e+01
3.473063331474e+01
3.753193825886e+01
3.308586083734e+01
3.368761918213e+01
3.320874444522e+01
3.315294398100e+01
3.481173032823e+01
3.748844202559e+01
3.307951754797e+01
3.368533864517e+01
3.322701920887e+01
3.322336982871e+01
3.368620603976e+01
3.308136007616e+01
3.469144396852e+01
3.368591913214e+01
3.468325224908e+01
3.370057984335e+01
3.468647324446e+01
3.370667274675e+01
3.467428074358e+01
3.366704554519e+01
5.081520438587e+01
3.263418891246e+01
3.263202070349e+01
3.262138820986e+01
3.262289288587e+01
4.152448379652e+01
4.150596029273e+01
4.149009817081e+01
4.153781253158e+01
3.314742492226e+01
3.469527196035e+01
3.749605695469e+01
3.755288901393e+01
3.462338783239e+01
3.314835892462e+01
3.304675221253e+01
3.364695901975e+01
3.318855698493e+01
3.314664664037e+01
3.468960095789e+01
3.748173229791e+01
3.305160583981e+01
3.365028694343e+01
3.317401806647e+01
3.311857131604e+01
3.477041327776e+01
3.743839217895e+01
3.304529524140e+01
3.364801012961e+01
3.319221217807e+01
3.318857831854e+01
3.364887622920e+01
3.304712263517e+01
3.464985338341e+01
3.364896071551e+01
3.464170034340e+01
3.366351386978e+01
3.464489641272e+01
3.366963426961e+01
3.463275172604e+01
3.363017083009e+01
5.073399733495e+01
3.264872608541e+01
3.264656841242e+01
3.263596927627e+01
3.263748168704e+01
4.151114668164e+01
4.149261888430e+01
4.147674272122e+01
4.152446109381e+01
3.315990620619e+01
3.470207862115e+01
3.749374865464e+01
3.755038536882e+01
3.463042714660e+01
3.316083603301e+01
3.305954638446e+01
3.365734081363e+01
3.320084332050e+01
3.315913347618e+01
3.469642161066e+01
3.747945130392e+01
3.306438061890e+01
3.366065675042e+01
3.318635912398e+01
3.313115820888e+01
3.477696555960e+01
3.743625629727e+01
3.305809519086e+01
3.365838675281e+01
3.320448641356e+01
3.320086637300e+01
3.365925168335e+01
3.305991598781e+01
3.465651982605e+01
3.365947167398e+01
3.464839778096e+01
3.367395296578e+01
3.465157952262e+01
3.368007286774e+01
3.463947819048e+01
3.364075364613e+01
5.069286413129e+01
3.268987247673e+01
3.268772232406e+01
3.267715304353e+01
3.267863973346e+01
4.153373068231e+01
4.151527190788e+01
4.149941856840e+01
4.154708612943e+01
3.320006326069e+01
3.473949387226e+01
3.752559707041e+01
3.758212070588e+01
3.466799347448e+01
3.320098259155e+01
3.309981470859e+01
3.369648516865e+01
3.324088360828e+01
3.319929465030e+01
3.473384920339e+01
3.751134863277e+01
3.310464543768e+01
3.369979228358e+01
3.322642536147e+01
3.317138205591e+01
3.481422697868e+01
3.746825017771e+01
3.309837233164e+01
3.369752649371e+01
3.324452565528e+01
3.324091183202e+01
3.369839356631e+01
3.310018402680e+01
3.469409362951e+01
3.369870472188e+01
3.468598138197e+01
3.371315398437e+01
3.468914841527e+01
3.371927000298e+01
3.467707585848e+01
3.368001846191e+01
5.070045727991e+01
3.276631016994e+01
3.276415660298e+01
3.275357165465e+01
3.275519785297e+01
4.158605839184e+01
4.156754543847e+01
4.155190054281e+01
4.159890250980e+01
3.327413042344e+01
3.480668244148e+01
3.758452418963e+01
3.764089678472e+01
3.473536264155e+01
3.327506961138e+01
3.317445831988e+01
3.376825597192e+01
3.331485558745e+01
3.327335890294e+01
3.480104278124e+01
3.757021392531e+01
3.317924012492e+01
3.377155746799e+01
3.330046360502e+01
3.324553309785e+01
3.488119305531e+01
3.752716043053e+01
3.317299496268e+01
3.376930095628e+01
3.331846370565e+01
3.331486612176e+01
3.377015519214e+01
3.317482729021e+01
3.476064000043e+01
3.377040586074e+01
3.475258170671e+01
3.378477555584e+01
3.475576297147e+01
3.379088556909e+01
3.474371845381e+01
3.375181630765e+01
5.070991544999e+01
3.279893541593e+01
3.279679814632e+01
3.278644821950e+01
3.278742877276e+01
4.156327475581e+01
4.154498884208e+01
4.152835807939e+01
4.157820393681e+01
3.330998415994e+01
3.484420525698e+01
3.760360983025e+01
3.765948504393e+01
3.477341958227e+01
3.331091843559e+01
3.321071218650e+01
3.380840212976e+01
3.335108460726e+01
3.330919989125e+01
3.483868173337e+01
3.758979838788e+01
3.321560930561e+01
3.381169939163e+01
3.333666144725e+01
3.328136399350e+01
3.491834626534e+01
3.754747904080e+01
3.320933248904e+01
3.380944414932e+01
3.335471494166e+01
3.335111374597e+01
3.381028550847e+01
3.321106335815e+01
3.480350854400e+01
3.380884101842e+01
3.479540394884e+01
3.382350642798e+01
3.479855989608e+01
3.382926925504e+01
3.478654840823e+01
3.379015182701e+01
5.071038325021e+01
3.244529399853e+01
3.244365274832e+01
3.243251755509e+01
3.243443166929e+01
4.153018595852e+01
4.151254152912e+01
4.150279056301e+01
4.153399371534e+01
3.293951871892e+01
3.449194394546e+01
3.737924509315e+01
3.743842195745e+01
3.441787810524e+01
3.293958407097e+01
3.283000101473e+01
3.340915567802e+01
3.297483295699e+01
3.293917208629e+01
3.448578136507e+01
3.736354800133e+01
3.283515383271e+01
3.341256125950e+01
3.296052651399e+01
3.291127206776e+01
3.456810291672e+01
3.731666494399e+01
3.282906850910e+01
3.341000123792e+01
3.297871746992e+01
3.297507344779e+01
3.341105309870e+01
3.283035918476e+01
3.442120127343e+01
3.342833896287e+01
3.441316113499e+01
3.344099104006e+01
3.441581997247e+01
3.344929526105e+01
3.440363308663e+01
3.340954583161e+01
5.059911432520e+01
3.139320902489e+01
3.139218451018e+01
3.138476104820e+01
3.138695350610e+01
3.845886254941e+01
3.842065935550e+01
3.835032265984e+01
3.853627575733e+01
3.169972934005e+01
3.268830306132e+01
3.469776856297e+01
3.472992073115e+01
3.263652609853e+01
3.170097383914e+01
3.162910906242e+01
3.198347236333e+01
3.171943788346e+01
3.169963007313e+01
3.268386112803e+01
3.468235456760e+01
3.163205679894e+01
3.198582592778e+01
3.171043534069e+01
3.167966696598e+01
3.274106904893e+01
3.466208663629e+01
3.162837965393e+01
3.198397770066e+01
3.172187037589e+01
3.171960412298e+01
3.198467636019e+01
3.162945686682e+01
3.260748530847e+01
3.200215494215e+01
3.260253312488e+01
3.200891563160e+01
3.260394422276e+01
3.201580143112e+01
3.259574901319e+01
3.199055871612e+01
4.919580382516e+01
3.107199330064e+01
3.107104836967e+01
3.106599977362e+01
3.106716168143e+01
3.402355006716e+01
3.404082850611e+01
3.410193971626e+01
3.394486237451e+01
3.130085231202e+01
3.198801169888e+01
3.314657424819e+01
3.317940595583e+01
3.195816694496e+01
3.130032004326e+01
3.125602455992e+01
3.152692049038e+01
3.132071577182e+01
3.130040898597e+01
3.198557376480e+01
3.314317109325e+01
3.125822781421e+01
3.152830939859e+01
3.131423351104e+01
3.128955163589e+01
3.201902909927e+01
3.311113386280e+01
3.125525301721e+01
3.152737915779e+01
3.132228215840e+01
3.132064164726e+01
3.152774298989e+01
3.125603636654e+01
3.198355008520e+01
3.152611561315e+01
3.198007690273e+01
3.153301485746e+01
3.198211340618e+01
3.153513690134e+01
3.197675286542e+01
3.151759758992e+01
3.245737426674e+01
3.075901708367e+01
3.075805111815e+01
3.075600278063e+01
3.075500233199e+01
3.197271370639e+01
3.198660588953e+01
3.201127776460e+01
3.195253063390e+01
3.091531028385e+01
3.132255808478e+01
3.183765029212e+01
3.185257941174e+01
3.130983191347e+01
3.091489224383e+01
3.089488101657e+01
3.108180015642e+01
3.093252218438e+01
3.091481177722e+01
3.132198776760e+01
3.184028228233e+01
3.089642360901e+01
3.108249407428e+01
3.092840347333e+01
3.090934720618e+01
3.133739351329e+01
3.182826875427e+01
3.089455673093e+01
3.108236512332e+01
3.093337572219e+01
3.093237112692e+01
3.108240559270e+01
3.089501697484e+01
3.136299819835e+01
3.106512897607e+01
3.136028728186e+01
3.107152174737e+01
3.136112071830e+01
3.107024584275e+01
3.135868044957e+01
3.105985200665e+01
3.236499144612e+01
3.047594855049e+01
3.047514828562e+01
3.047475847980e+01
3.047305377099e+01
3.110346195932e+01
3.110646639067e+01
3.111130599987e+01
3.110081028309e+01
3.057346299599e+01
3.078685388143e+01
3.101194521355e+01
3.101780462317e+01
3.078124747825e+01
3.057414018024e+01
3.056877233553e+01
3.068324555581e+01
3.058596609840e+01
3.057287726218e+01
3.078691403828e+01
3.101363081938e+01
3.056944295190e+01
3.068353738431e+01
3.058363144311e+01
3.056938603615e+01
3.079452540465e+01
3.101042890756e+01
3.056823645433e+01
3.068356468658e+01
3.058635221417e+01
3.058582341464e+01
3.068350975812e+01
3.056877957365e+01
3.082450598154e+01
3.066238175363e+01
3.082311254989e+01
3.066709423499e+01
3.082406941102e+01
3.066481179760e+01
3.082262817800e+01
3.065949677051e+01
3.105858177327e+01
3.023911111416e+01
3.023847378511e+01
3.023818449457e+01
3.023788740559e+01
3.052117362475e+01
3.052273575232e+01
3.052595373210e+01
3.051838096528e+01
3.029290769053e+01
3.039408673646e+01
3.049152016625e+01
3.049430001890e+01
3.039150055792e+01
3.029369473640e+01
3.029470556914e+01
3.035677055625e+01
3.030161118851e+01
3.029242432845e+01
3.039417772682e+01
3.049220176327e+01
3.029477352704e+01
3.035693097122e+01
3.030039813305e+01
3.029049222049e+01
3.039794218222e+01
3.049066201087e+01
3.029409449079e+01
3.035704119279e+01
3.030161373975e+01
3.030137686692e+01
3.035690130997e+01
3.029470678443e+01
3.041738688780e+01
3.033986843489e+01
3.041677491797e+01
3.034277992895e+01
3.041763544566e+01
3.034096551362e+01
3.041681051453e+01
3.033855165203e+01
3.053493020651e+01
2.977363919172e+01
2.977356231729e+01
2.977348408299e+01
2.977385446961e+01
2.976451051836e+01
2.976441260497e+01
2.976417103385e+01
2.976480653757e+01
2.977336820093e+01
2.977040116721e+01
2.976601892125e+01
2.976593327978e+01
2.977049040598e+01
2.977343959617e+01
2.977417814685e+01
2.977379924557e+01
2.977378941710e+01
2.977332923169e+01
2.977040539994e+01
2.976600187855e+01
2.977407221503e+01
2.977378383601e+01
2.977379247830e+01
2.977339600158e+01