# vtk DataFile Version 3.0
Unstructured Grid from OpenGeoSys
ASCII
DATASET UNSTRUCTURED_GRID
FIELD TimesAndCycles 2
TIME 1 1 double
3.600000000000e+03
CYLCE 1 1 long
1
POINTS 1394 double
0.000000000000e+00 0.000000000000e+00 0.000000000000e+00
5.000000000000e+00 0.000000000000e+00 0.000000000000e+00
5.000000000000e+00 5.000000000000e+00 0.000000000000e+00
0.000000000000e+00 5.000000000000e+00 0.000000000000e+00
2.244234909000e+00 2.244234909000e+00 0.000000000000e+00
2.755765091000e+00 2.244234909000e+00 0.000000000000e+00
2.755765091000e+00 2.755765091000e+00 0.000000000000e+00
2.244234909000e+00 2.755765091000e+00 0.000000000000e+00
7.141316008320e-01 7.141316008320e-01 0.000000000000e+00
1.314642334730e+00 1.314642334730e+00 0.000000000000e+00
1.819609643610e+00 1.819609643610e+00 0.000000000000e+00
1.819609643610e+00 3.180390356390e+00 0.000000000000e+00
1.314642334740e+00 3.685357665260e+00 0.000000000000e+00
7.141316008360e-01 4.285868399160e+00 0.000000000000e+00
0.000000000000e+00 3.750000000000e+00 0.000000000000e+00
0.000000000000e+00 2.500000000000e+00 0.000000000000e+00
0.000000000000e+00 1.250000000000e+00 0.000000000000e+00
4.285868399170e+00 7.141316008320e-01 0.000000000000e+00
3.685357665270e+00 1.314642334730e+00 0.000000000000e+00
3.180390356390e+00 1.819609643610e+00 0.000000000000e+00
1.250000000000e+00 0.000000000000e+00 0.000000000000e+00
2.500000000000e+00 0.000000000000e+00 0.000000000000e+00
3.750000000000e+00 0.000000000000e+00 0.000000000000e+00
4.285868399170e+00 4.285868399170e+00 0.000000000000e+00
3.685357665270e+00 3.685357665270e+00 0.000000000000e+00
3.180390356390e+00 3.180390356390e+00 0.000000000000e+00
5.000000000000e+00 1.250000000000e+00 0.000000000000e+00
5.000000000000e+00 2.500000000000e+00 0.000000000000e+00
5.000000000000e+00 3.750000000000e+00 0.000000000000e+00
3.750000000000e+00 5.000000000000e+00 0.000000000000e+00
2.500000000000e+00 5.000000000000e+00 0.000000000000e+00
1.250000000000e+00 5.000000000000e+00 0.000000000000e+00
9.560744151940e-01 2.677827143250e+00 0.000000000000e+00
6.659597640160e-01 1.438876720610e+00 0.000000000000e+00
2.309219871940e+00 9.522638293400e-01 0.000000000000e+00
3.458157207860e+00 6.354750772000e-01 0.000000000000e+00
4.043925584810e+00 2.322172856750e+00 0.000000000000e+00
4.334040235980e+00 3.561123279390e+00 0.000000000000e+00
2.318530875810e+00 4.048536535600e+00 0.000000000000e+00
3.552396921680e+00 4.370927842320e+00 0.000000000000e+00
2.500000000000e+00 2.500000000000e+00 0.000000000000e+00
0.000000000000e+00 0.000000000000e+00 -5.000000000000e-01
5.000000000000e+00 0.000000000000e+00 -5.000000000000e-01
5.000000000000e+00 5.000000000000e+00 -5.000000000000e-01
0.000000000000e+00 5.000000000000e+00 -5.000000000000e-01
2.244234909000e+00 2.244234909000e+00 -5.000000000000e-01
2.755765091000e+00 2.244234909000e+00 -5.000000000000e-01
2.755765091000e+00 2.755765091000e+00 -5.000000000000e-01
2.244234909000e+00 2.755765091000e+00 -5.000000000000e-01
7.141316008320e-01 7.141316008320e-01 -5.000000000000e-01
1.314642334730e+00 1.314642334730e+00 -5.000000000000e-01
1.819609643610e+00 1.819609643610e+00 -5.000000000000e-01
1.819609643610e+00 3.180390356390e+00 -5.000000000000e-01
1.314642334740e+00 3.685357665260e+00 -5.000000000000e-01
7.141316008360e-01 4.285868399160e+00 -5.000000000000e-01
0.000000000000e+00 3.750000000000e+00 -5.000000000000e-01
0.000000000000e+00 2.500000000000e+00 -5.000000000000e-01
0.000000000000e+00 1.250000000000e+00 -5.000000000000e-01
4.285868399170e+00 7.141316008320e-01 -5.000000000000e-01
3.685357665270e+00 1.314642334730e+00 -5.000000000000e-01
3.180390356390e+00 1.819609643610e+00 -5.000000000000e-01
1.250000000000e+00 0.000000000000e+00 -5.000000000000e-01
2.500000000000e+00 0.000000000000e+00 -5.000000000000e-01
3.750000000000e+00 0.000000000000e+00 -5.000000000000e-01
4.285868399170e+00 4.285868399170e+00 -5.000000000000e-01
3.685357665270e+00 3.685357665270e+00 -5.000000000000e-01
3.180390356390e+00 3.180390356390e+00 -5.000000000000e-01
5.000000000000e+00 1.250000000000e+00 -5.000000000000e-01
5.000000000000e+00 2.500000000000e+00 -5.000000000000e-01
5.000000000000e+00 3.750000000000e+00 -5.000000000000e-01
3.750000000000e+00 5.000000000000e+00 -5.000000000000e-01
2.500000000000e+00 5.000000000000e+00 -5.000000000000e-01
1.250000000000e+00 5.000000000000e+00 -5.000000000000e-01
9.560744151940e-01 2.677827143250e+00 -5.000000000000e-01
6.659597640160e-01 1.438876720610e+00 -5.000000000000e-01
2.309219871940e+00 9.522638293400e-01 -5.000000000000e-01
3.458157207860e+00 6.354750772000e-01 -5.000000000000e-01
4.043925584810e+00 2.322172856750e+00 -5.000000000000e-01
4.334040235980e+00 3.561123279390e+00 -5.000000000000e-01
2.318530875810e+00 4.048536535600e+00 -5.000000000000e-01
3.552396921680e+00 4.370927842320e+00 -5.000000000000e-01
2.500000000000e+00 2.500000000000e+00 -5.000000000000e-01
0.000000000000e+00 0.000000000000e+00 -1.000000000000e+00
5.000000000000e+00 0.000000000000e+00 -1.000000000000e+00
5.000000000000e+00 5.000000000000e+00 -1.000000000000e+00
0.000000000000e+00 5.000000000000e+00 -1.000000000000e+00
2.244234909000e+00 2.244234909000e+00 -1.000000000000e+00
2.755765091000e+00 2.244234909000e+00 -1.000000000000e+00
2.755765091000e+00 2.755765091000e+00 -1.000000000000e+00
2.244234909000e+00 2.755765091000e+00 -1.000000000000e+00
7.141316008320e-01 7.141316008320e-01 -1.000000000000e+00
1.314642334730e+00 1.314642334730e+00 -1.000000000000e+00
1.819609643610e+00 1.819609643610e+00 -1.000000000000e+00
1.819609643610e+00 3.180390356390e+00 -1.000000000000e+00
1.314642334740e+00 3.685357665260e+00 -1.000000000000e+00
7.141316008360e-01 4.285868399160e+00 -1.000000000000e+00
0.000000000000e+00 3.750000000000e+00 -1.000000000000e+00
0.000000000000e+00 2.500000000000e+00 -1.000000000000e+00
0.000000000000e+00 1.250000000000e+00 -1.000000000000e+00
4.285868399170e+00 7.141316008320e-01 -1.000000000000e+00
3.685357665270e+00 1.314642334730e+00 -1.000000000000e+00
3.180390356390e+00 1.819609643610e+00 -1.000000000000e+00
1.250000000000e+00 0.000000000000e+00 -1.000000000000e+00
2.500000000000e+00 0.000000000000e+00 -1.000000000000e+00
3.750000000000e+00 0.000000000000e+00 -1.000000000000e+00
4.285868399170e+00 4.285868399170e+00 -1.000000000000e+00
3.685357665270e+00 3.685357665270e+00 -1.000000000000e+00
3.180390356390e+00 3.180390356390e+00 -1.000000000000e+00
5.000000000000e+00 1.250000000000e+00 -1.000000000000e+00
5.000000000000e+00 2.500000000000e+00 -1.000000000000e+00
5.000000000000e+00 3.750000000000e+00 -1.000000000000e+00
3.750000000000e+00 5.000000000000e+00 -1.000000000000e+00
2.500000000000e+00 5.000000000000e+00 -1.000000000000e+00
1.250000000000e+00 5.000000000000e+00 -1.000000000000e+00
9.560744151940e-01 2.677827143250e+00 -1.000000000000e+00
6.659597640160e-01 1.438876720610e+00 -1.000000000000e+00
2.309219871940e+00 9.522638293400e-01 -1.000000000000e+00
3.458157207860e+00 6.354750772000e-01 -1.000000000000e+00
4.043925584810e+00 2.322172856750e+00 -1.000000000000e+00
4.334040235980e+00 3.561123279390e+00 -1.000000000000e+00
2.318530875810e+00 4.048536535600e+00 -1.000000000000e+00
3.552396921680e+00 4.370927842320e+00 -1.000000000000e+00
2.500000000000e+00 2.500000000000e+00 -1.000000000000e+00
0.000000000000e+00 0.000000000000e+00 -3.000000000000e+00
5.000000000000e+00 0.000000000000e+00 -3.000000000000e+00
5.000000000000e+00 5.000000000000e+00 -3.000000000000e+00
0.000000000000e+00 5.000000000000e+00 -3.000000000000e+00
2.244234909000e+00 2.244234909000e+00 -3.000000000000e+00
2.755765091000e+00 2.244234909000e+00 -3.000000000000e+00
2.755765091000e+00 2.755765091000e+00 -3.000000000000e+00
2.244234909000e+00 2.755765091000e+00 -3.000000000000e+00
7.141316008320e-01 7.141316008320e-01 -3.000000000000e+00
1.314642334730e+00 1.314642334730e+00 -3.000000000000e+00
1.819609643610e+00 1.819609643610e+00 -3.000000000000e+00
1.819609643610e+00 3.180390356390e+00 -3.000000000000e+00
1.314642334740e+00 3.685357665260e+00 -3.000000000000e+00
7.141316008360e-01 4.285868399160e+00 -3.000000000000e+00
0.000000000000e+00 3.750000000000e+00 -3.000000000000e+00
0.000000000000e+00 2.500000000000e+00 -3.000000000000e+00
0.000000000000e+00 1.250000000000e+00 -3.000000000000e+00
4.285868399170e+00 7.141316008320e-01 -3.000000000000e+00
3.685357665270e+00 1.314642334730e+00 -3.000000000000e+00
3.180390356390e+00 1.819609643610e+00 -3.000000000000e+00
1.250000000000e+00 0.000000000000e+00 -3.000000000000e+00
2.500000000000e+00 0.000000000000e+00 -3.000000000000e+00
3.750000000000e+00 0.000000000000e+00 -3.000000000000e+00
4.285868399170e+00 4.285868399170e+00 -3.000000000000e+00
3.685357665270e+00 3.685357665270e+00 -3.000000000000e+00
3.180390356390e+00 3.180390356390e+00 -3.000000000000e+00
5.000000000000e+00 1.250000000000e+00 -3.000000000000e+00
5.000000000000e+00 2.500000000000e+00 -3.000000000000e+00
5.000000000000e+00 3.750000000000e+00 -3.000000000000e+00
3.750000000000e+00 5.000000000000e+00 -3.000000000000e+00
2.500000000000e+00 5.000000000000e+00 -3.000000000000e+00
1.250000000000e+00 5.000000000000e+00 -3.000000000000e+00
9.560744151940e-01 2.677827143250e+00 -3.000000000000e+00
6.659597640160e-01 1.438876720610e+00 -3.000000000000e+00
2.309219871940e+00 9.522638293400e-01 -3.000000000000e+00
3.458157207860e+00 6.354750772000e-01 -3.000000000000e+00
4.043925584810e+00 2.322172856750e+00 -3.000000000000e+00
4.334040235980e+00 3.561123279390e+00 -3.000000000000e+00
2.318530875810e+00 4.048536535600e+00 -3.000000000000e+00
3.552396921680e+00 4.370927842320e+00 -3.000000000000e+00
2.500000000000e+00 2.500000000000e+00 -3.000000000000e+00
0.000000000000e+00 0.000000000000e+00 -5.000000000000e+00
5.000000000000e+00 0.000000000000e+00 -5.000000000000e+00
5.000000000000e+00 5.000000000000e+00 -5.000000000000e+00
0.000000000000e+00 5.000000000000e+00 -5.000000000000e+00
2.244234909000e+00 2.244234909000e+00 -5.000000000000e+00
[...]
POINT_DATA 1394
SCALARS TEMPERATURE1 double 1
LOOKUP_TABLE default
1.000000000000e+01
1.000000000000e+01
1.000000000000e+01
1.000000000000e+01
1.000000000000e+01
1.000000000000e+01
1.000000000000e+01
1.000000000000e+01
1.000000000000e+01
1.000000000000e+01
1.000000000000e+01
1.000000000000e+01
1.000000000000e+01
1.000000000000e+01
1.000000000000e+01
1.000000000000e+01
1.000000000000e+01
1.000000000000e+01
1.000000000000e+01
1.000000000000e+01
1.000000000000e+01
1.000000000000e+01
1.000000000000e+01
1.000000000000e+01
1.000000000000e+01
1.000000000000e+01
1.000000000000e+01
1.000000000000e+01
1.000000000000e+01
1.000000000000e+01
1.000000000000e+01
1.000000000000e+01
1.000000000000e+01
1.000000000000e+01
1.000000000000e+01
1.000000000000e+01
1.000000000000e+01
1.000000000000e+01
1.000000000000e+01
1.000000000000e+01
1.000000000000e+01
1.644144028636e+01
1.644167821398e+01
1.643449204753e+01
1.643672586150e+01
2.022373320087e+01
2.024919094233e+01
2.033708872394e+01
2.011046651382e+01
1.666193781272e+01
1.747606514055e+01
1.901576185532e+01
1.905961758628e+01
1.743663566182e+01
1.665877719178e+01
1.658728063356e+01
1.685290506212e+01
1.667102342429e+01
1.666255494666e+01
1.747210424888e+01
1.900944981072e+01
1.659077537246e+01
1.685477436134e+01
1.666404336555e+01
1.665068219862e+01
1.751390855742e+01
1.896355090271e+01
1.658790718431e+01
1.685302773403e+01
1.667338422304e+01
1.667143041113e+01
1.685383644745e+01
1.658729152753e+01
1.741345439674e+01
1.689431830315e+01
1.740955834229e+01
1.689783601035e+01
1.741035686645e+01
1.690554552614e+01
1.740417119828e+01
1.688429720686e+01
1.845833180377e+01
2.324887529820e+01
2.324823389702e+01
2.323484157972e+01
2.323608253538e+01
3.452202305692e+01
3.449274847818e+01
3.445465144967e+01
3.456114664241e+01
2.378218276516e+01
2.556237815839e+01
2.906561663394e+01
2.913289856517e+01
2.547245021915e+01
2.378116094944e+01
2.364284537125e+01
2.426659759332e+01
2.381189046604e+01
2.378273730761e+01
2.555436987918e+01
2.904321174683e+01
2.364972519485e+01
2.427102629987e+01
2.379609678884e+01
2.374950177333e+01
2.565212008473e+01
2.898977860393e+01
2.364327434493e+01
2.426730657051e+01
2.381645719122e+01
2.381238826483e+01
2.426855521910e+01
2.364318079305e+01
2.542751173573e+01
2.431752453987e+01
2.541871264943e+01
2.432874375744e+01
2.542055614591e+01
2.434186790310e+01
2.540622414482e+01
2.429599656624e+01
4.779691829572e+01
2.678472711923e+01
2.678314484180e+01
2.676934224823e+01
2.676963739662e+01
3.765679511630e+01
3.764445565551e+01
3.763820420565e+01
3.766435028681e+01
2.740132126523e+01
2.932127941449e+01
3.282547943673e+01
3.289794667042e+01
2.923134118315e+01
2.740042990327e+01
2.726643370094e+01
2.798992428226e+01
2.744626735309e+01
2.740116125762e+01
2.931395336537e+01
3.280815462152e+01
2.727378444262e+01
2.799459216045e+01
2.742877480413e+01
2.736662104571e+01
2.941307135367e+01
3.274993376860e+01
2.726635072891e+01
2.799120908068e+01
2.745072585540e+01
2.744627201450e+01
2.799206375523e+01
2.726676270775e+01
2.924809059493e+01
2.801001674272e+01
2.923823054725e+01
2.802656393104e+01
2.924112607333e+01
2.803559221357e+01
2.922604651822e+01
2.798633396048e+01
4.852620710616e+01
2.839065572365e+01
2.838898358067e+01
2.837625817481e+01
2.837641043618e+01
3.848346913706e+01
3.847017268140e+01
3.846107143469e+01
3.849366866429e+01
2.897174524208e+01
3.075421273099e+01
3.398801369371e+01
3.405447545148e+01
3.067105986292e+01
2.897136051675e+01
2.885030213978e+01
2.953114478088e+01
2.901591662496e+01
2.897141938779e+01
3.074757125451e+01
3.397200949479e+01
2.885702357384e+01
2.953550172426e+01
2.899959628875e+01
2.893895909258e+01
3.083946425268e+01
3.391919301530e+01
2.885001109846e+01
2.953241730800e+01
2.901992139229e+01
2.901577594683e+01
2.953309263345e+01
2.885058663921e+01
3.069431504704e+01
2.954254041291e+01
3.068521742374e+01
2.955870129968e+01
3.068822301940e+01
2.956616173420e+01
3.067407926767e+01
2.952050910818e+01
4.879295529895e+01
2.895750577168e+01
2.895598652406e+01
2.894360324299e+01
2.894378057966e+01
3.877673284980e+01
3.876340027097e+01
3.875429044334e+01
3.878641442636e+01
2.951605761426e+01
3.124072549209e+01
3.438570946718e+01
3.445024334316e+01
3.115986048376e+01
2.951555173597e+01
2.939698288203e+01
3.005156002502e+01
2.955764357685e+01
2.951582102348e+01
3.123422089306e+01
3.436989384040e+01
2.940354298389e+01
3.005579014438e+01
2.954190677270e+01
2.948440733080e+01
3.132342503017e+01
3.431844571852e+01
2.939680224714e+01
3.005274852208e+01
2.956156491385e+01
2.955754960713e+01
3.005343504401e+01
2.939725479945e+01
3.117790066609e+01
3.006574917221e+01
3.116913146630e+01
3.008102563570e+01
3.117193604864e+01
3.008863965649e+01
3.115823613873e+01
3.004443511939e+01
4.880819459571e+01
2.910773131649e+01
2.910628305218e+01
2.909415702902e+01
2.909409253219e+01
3.880290018657e+01
3.878910119097e+01
3.877921851241e+01
3.881306573708e+01
2.965738154876e+01
3.135645814153e+01
3.445742676424e+01
3.452089584741e+01
3.127673134107e+01
2.965687279139e+01
2.953961091745e+01
3.018371649914e+01
2.969790694740e+01
2.965717166360e+01
3.135005117969e+01
3.444174952268e+01
2.954612394111e+01
3.018788237391e+01
2.968242161837e+01
2.962616612787e+01
3.143797725624e+01
3.439122116338e+01
2.953948642830e+01
3.018485352637e+01
2.970180380219e+01
2.969784517048e+01
3.018554693261e+01
2.953986488681e+01
3.129378450509e+01
3.019847162135e+01
3.128516491451e+01
3.021345020920e+01
3.128790158935e+01
3.022100842389e+01
3.127438814748e+01
3.017744836600e+01
4.874122966925e+01
2.911885600029e+01
2.911744340195e+01
2.910539556396e+01
2.910531803401e+01
3.876198030640e+01
3.874804382601e+01
3.873754382867e+01
3.877292431734e+01
2.966367899217e+01
3.135039347357e+01
3.443267105291e+01
3.449564656758e+01
3.127115339822e+01
2.966314499419e+01
2.954640054857e+01
3.018486486420e+01
2.970363165057e+01
2.966349089107e+01
3.134401879913e+01
3.441701881582e+01
2.955288419493e+01
3.018900597507e+01
2.968827248506e+01
2.963269847414e+01
3.143137149661e+01
3.436690623759e+01
2.954630733956e+01
3.018598443887e+01
2.970751076807e+01
2.970358048059e+01
3.018667916723e+01
2.954665286448e+01
3.128703985361e+01
3.020024146508e+01
3.127848814957e+01
3.021502913412e+01
3.128117150931e+01
3.022262213921e+01
3.126775494981e+01
3.017937104498e+01
4.866841209163e+01
2.890831320438e+01
2.890709853325e+01
2.889565164027e+01
2.889503346362e+01
3.835077710947e+01
3.833411193859e+01
3.831954740070e+01
3.836447001506e+01
2.943077910852e+01
3.105880376010e+01
3.405569963868e+01
3.411618818881e+01
3.098176922627e+01
2.943028854055e+01
2.931573515880e+01
2.992770446467e+01
2.946756064010e+01
2.943067511606e+01
3.105259717166e+01
3.403990257885e+01
2.932208920093e+01
2.993168162196e+01
2.945279736762e+01
2.940071018440e+01
3.113744184183e+01
3.399205019580e+01
2.931576155441e+01
2.992865510279e+01
2.947143279098e+01
2.946762947571e+01
2.992941149624e+01
2.931594277175e+01
3.099197303889e+01
2.994611563681e+01
3.098379483081e+01
2.995998587933e+01
3.098630757395e+01
2.996771266005e+01
3.097328144617e+01
2.992593377135e+01
4.817191742435e+01
2.874628522809e+01
2.874522763700e+01
2.873425586805e+01
2.873325985338e+01
3.801296780948e+01
3.799430541952e+01
3.797635263871e+01
3.802934344732e+01
2.924997832059e+01
3.082871510845e+01
3.375294505398e+01
3.381134048515e+01
3.075356469539e+01
2.924950555552e+01
2.913686425599e+01
2.972664209662e+01
2.928419247382e+01
2.924994490409e+01
3.082265010476e+01
3.373707448529e+01
2.914310297013e+01
2.973048569782e+01
2.926992721440e+01
2.922070725453e+01
3.090534946075e+01
3.369112342057e+01
2.913698962313e+01
2.972746474342e+01
2.928804785428e+01
2.928435232629e+01
2.972826588757e+01
2.913704139996e+01
3.075913777468e+01
2.974751355496e+01
3.075126078651e+01
2.976062238748e+01
3.075361832680e+01
2.976846011498e+01
3.074093501585e+01
2.972791766891e+01
4.775314738612e+01
2.862888699416e+01
2.862795522819e+01
2.861738475390e+01
2.861608922240e+01
3.774015378937e+01
3.771985324230e+01
3.769918773874e+01
3.775860520433e+01
2.911669970855e+01
3.065319719203e+01
3.351425856683e+01
3.357087513748e+01
3.057968111411e+01
2.911624850507e+01
2.900534890939e+01
2.957635139500e+01
2.914880469579e+01
2.911672110430e+01
3.064725594769e+01
3.349834898937e+01
2.901148142754e+01
2.958008015612e+01
2.913496255829e+01
2.908811254922e+01
3.072810260988e+01
3.345400742086e+01
2.900554926844e+01
2.957706929821e+01
2.915264056766e+01
2.914903752933e+01
2.957790562872e+01
2.900550105917e+01
3.058153468598e+01
2.959912707286e+01
3.057391385038e+01
2.961160485142e+01
3.057614688628e+01
2.961951537479e+01
3.056375827299e+01
2.958003505035e+01
4.740032099996e+01
2.854483427376e+01
2.854400118663e+01
2.853375701013e+01
2.853223510181e+01
3.752409642765e+01
3.750250661149e+01
3.747968671321e+01
3.754420496882e+01
2.901957978880e+01
3.052103444904e+01
3.332916595047e+01
3.338431408223e+01
3.044888673394e+01
2.901914812479e+01
2.890975606458e+01
2.946531214348e+01
2.904999362379e+01
2.901964365396e+01
3.051519689726e+01
3.331324043912e+01
2.891579563064e+01
2.946894594872e+01
2.903650026603e+01
2.899156319023e+01
3.059449616686e+01
3.327022390367e+01
2.891001307016e+01
2.946594733752e+01
2.905380925256e+01
2.905028322841e+01
2.946681039905e+01
2.890988888711e+01
3.044779119626e+01
2.948955110727e+01
3.044038049306e+01
2.950151732429e+01
3.044251352389e+01
2.950947688386e+01
3.043037139368e+01
2.947087911592e+01
4.711046957616e+01
2.849117039272e+01
2.849040982780e+01
2.848041930767e+01
2.847873724605e+01
3.736225815624e+01
3.733970968708e+01
3.731528609762e+01
3.738359163447e+01
2.895565955854e+01
3.042926944416e+01
3.319474936386e+01
3.324873828569e+01
3.035822288386e+01
2.895524602314e+01
2.884711974114e+01
2.939055319176e+01
2.898479157695e+01
2.895575379539e+01
3.042351578078e+01
3.317882858734e+01
2.885308065614e+01
2.939411173321e+01
2.897157297296e+01
2.892809833231e+01
3.050157429436e+01
3.313685423191e+01
2.884741585957e+01
2.939112666581e+01
2.898858711929e+01
2.898512253272e+01
2.939200846468e+01
2.884723837790e+01
3.035494231115e+01
2.941582444650e+01
3.034769654062e+01
2.942739788777e+01
3.034975427765e+01
2.943538278094e+01
3.033780952462e+01
2.939748782703e+01
4.688230831597e+01
2.846445196900e+01
2.846373906745e+01
2.845393096051e+01
2.845215007103e+01
3.725195481177e+01
3.722876194233e+01
3.720326293857e+01
3.727409610597e+01
2.892147197619e+01
3.037443572961e+01
3.310767535979e+01
3.316081281473e+01
3.030421983440e+01
2.892107491050e+01
2.881395891862e+01
2.934856426192e+01
2.894971851017e+01
2.892158516248e+01
3.036874587803e+01
3.309177585561e+01
2.881985656451e+01
2.935206721715e+01
2.893670114739e+01
2.889424994660e+01
3.044587300961e+01
3.305056277539e+01
2.881427785140e+01
2.934909606716e+01
2.895349498085e+01
2.895007622243e+01
2.934998912221e+01
2.881406817643e+01
3.029948541436e+01
2.937446257966e+01
3.029236000506e+01
2.938575934794e+01
3.029436648441e+01
2.939374841146e+01
3.028256942113e+01
2.935637623359e+01
4.671465293631e+01
2.846336928968e+01
2.846268002756e+01
2.845298461197e+01
2.845116316860e+01
3.719188336531e+01
3.716835202220e+01
3.714228960185e+01
3.721443114744e+01
2.891566831439e+01
3.035511756103e+01
3.306646716909e+01
3.311905671895e+01
3.028546380693e+01
2.891528565596e+01
2.880891907923e+01
2.933794557214e+01
2.894341507960e+01
2.891578949980e+01
3.034947161370e+01
3.305060431118e+01
2.881476926480e+01
2.934141230940e+01
2.893052634580e+01
2.888867053862e+01
3.042597424998e+01
3.300987608757e+01
2.880924536212e+01
2.933845509509e+01
2.894717401735e+01
2.894378557577e+01
2.933935233517e+01
2.880902362270e+01
3.027998776166e+01
2.936408354359e+01
3.027293864030e+01
2.937521730903e+01
3.027491705975e+01
2.938319094309e+01
3.026321848983e+01
2.934616297042e+01
4.660691189868e+01
2.848791695955e+01
2.848722621014e+01
2.847757336428e+01
2.847577437535e+01
3.718068104176e+01
3.715711302800e+01
3.713102636335e+01
3.720317994015e+01
2.893820846668e+01
3.037106194124e+01
3.307045321340e+01
3.312279458905e+01
3.030171074450e+01
2.893784007089e+01
2.883199508494e+01
2.935864702457e+01
2.896585118812e+01
2.893832578982e+01
3.036544090757e+01
3.305464472808e+01
2.883781155462e+01
2.936209671465e+01
2.895302008031e+01
2.891132175856e+01
3.044161631022e+01
3.301412602139e+01
2.883231158806e+01
2.935915428453e+01
2.896959258363e+01
2.896621948578e+01
2.936004775402e+01
2.883209954262e+01
3.029622608214e+01
2.938460114434e+01
3.028921086682e+01
2.939568693612e+01
3.029118608586e+01
2.940362084083e+01
3.027953746201e+01
2.936676457917e+01
4.655487026021e+01
2.850612030908e+01
2.850542981573e+01
2.849578611016e+01
2.849397986723e+01
3.719151910124e+01
3.716802823360e+01
3.714198137754e+01
3.721405930854e+01
2.895623602374e+01
3.038853344266e+01
3.308605241149e+01
3.313836358164e+01
3.031923661080e+01
2.895586103006e+01
2.885004478807e+01
2.937652118838e+01
2.898386478648e+01
2.895635403811e+01
3.038291745880e+01
3.307027912076e+01
2.885586111634e+01
2.937996756266e+01
2.897103771238e+01
2.892937400513e+01
3.045903719128e+01
3.302979156239e+01
2.885036387542e+01
2.937702838778e+01
2.898760674486e+01
2.898423484104e+01
2.937792287511e+01
2.885015027962e+01
3.031388340891e+01
2.940247335054e+01
3.030686583509e+01
2.941355709533e+01
3.030883421088e+01
2.942148642596e+01
3.029719713872e+01
2.938464327453e+01
4.655995890835e+01
2.857272132493e+01
2.857202289921e+01
2.856236616594e+01
2.856068541955e+01
3.724077727315e+01
3.721725433574e+01
3.719144391991e+01
3.726280737893e+01
2.902114369248e+01
3.044833943082e+01
3.313999686152e+01
3.319221624846e+01
3.037916907527e+01
2.902079525986e+01
2.891543857293e+01
2.943983888471e+01
2.904874122811e+01
2.902125533844e+01
3.044272429505e+01
3.312416676571e+01
2.892120782818e+01
2.944327832322e+01
2.903596002579e+01
2.899434030260e+01
3.051869177084e+01
3.308368821715e+01
2.891572972383e+01
2.944034915285e+01
2.905245686351e+01
2.904909849943e+01
2.944123605209e+01
2.891554454830e+01
3.037319393165e+01
2.946566061868e+01
3.036621486901e+01
2.947668852097e+01
3.036820209482e+01
2.948461226519e+01
3.035658602357e+01
2.944790740272e+01
4.657205121944e+01
2.875173101414e+01
2.875103324310e+01
2.874165928846e+01
2.873947944531e+01
3.731704748409e+01
3.729393147671e+01
3.726753494434e+01
3.734068011012e+01
2.920028023886e+01
3.062049971166e+01
3.327982526366e+01
3.333133164051e+01
3.055223687474e+01
2.919995403402e+01
2.909557808078e+01
2.962024876075e+01
2.922806913420e+01
2.920036943414e+01
3.061501266406e+01
3.326454316132e+01
2.910137770598e+01
2.962364226930e+01
2.921532161756e+01
2.917365120315e+01
3.069011953236e+01
3.322494075783e+01
2.909590194685e+01
2.962074910038e+01
2.923179457202e+01
2.922845673820e+01
2.962163911272e+01
2.909567521623e+01
3.055052124204e+01
2.964441484688e+01
3.054351988832e+01
2.965562302197e+01
3.054547803630e+01
2.966322545129e+01
3.053398463818e+01
2.962670053208e+01
4.661075716658e+01
2.900088970144e+01
2.900051150662e+01
2.899070370315e+01
2.898968222371e+01
3.764318837095e+01
3.762095558530e+01
3.760122667494e+01
3.765616583862e+01
2.942611431421e+01
3.082847613206e+01
3.353388662424e+01
3.358705963995e+01
3.075903925868e+01
2.942525434511e+01
2.931611646847e+01
2.981424750150e+01
2.944895611959e+01
2.942649099515e+01
3.082257157433e+01
3.351726769448e+01
2.932183082082e+01
2.981759637499e+01
2.943654731295e+01
2.940036129576e+01
3.089834668377e+01
3.347472642806e+01
2.931660918799e+01
2.981457544144e+01
2.945280760389e+01
2.944951382481e+01
2.981565164736e+01
2.931623444776e+01
3.073546208167e+01
2.985226801016e+01
3.072865134690e+01
2.986160388268e+01
3.073026772454e+01
2.987111761846e+01
3.071890141502e+01
2.983494699388e+01
4.663380533662e+01
2.914660690410e+01
2.914640337868e+01
2.914019924050e+01
2.914018888908e+01
3.556297821543e+01
3.552481131977e+01
3.545428150897e+01
3.563922932328e+01
2.940003340480e+01
3.025657900131e+01
3.205528989543e+01
3.208252785338e+01
3.021021166809e+01
2.940059314336e+01
2.933223834229e+01
2.962478970872e+01
2.941157128290e+01
2.940036773181e+01
3.025256472036e+01
3.204041080990e+01
2.933547932536e+01
2.962700286657e+01
2.940409174667e+01
2.938240053891e+01
3.030296889830e+01
3.202343798418e+01
2.933245693753e+01
2.962495414609e+01
2.941389685417e+01
2.941192596077e+01
2.962562730809e+01
2.933240731239e+01
3.016956663910e+01
2.965317403212e+01
3.016556125440e+01
2.965782050796e+01
3.016628870341e+01
2.966491778955e+01
3.015895164093e+01
2.964288359784e+01
4.549691079997e+01
2.917290356358e+01
2.917264713120e+01
2.916836656536e+01
2.916807441313e+01
3.175834904749e+01
3.177317785226e+01
3.182837170688e+01
3.168568940846e+01
2.935828685497e+01
2.994466838974e+01
3.096458426867e+01
3.099331974518e+01
2.991834314069e+01
2.935718258611e+01
2.931469942373e+01
2.953474428342e+01
2.937121124715e+01
2.935825116540e+01
2.994245043219e+01
3.096110441428e+01
2.931715656513e+01
2.953608407532e+01
2.936593944607e+01
2.934876868696e+01
2.997119154756e+01
3.093221989162e+01
2.931474468623e+01
2.953495762527e+01
2.937267900280e+01
2.937127176901e+01
2.953528789152e+01
2.931459562530e+01
2.992978261376e+01
2.954361841021e+01
2.992704850267e+01
2.954860896663e+01
2.992842579506e+01
2.955123897463e+01
2.992369761451e+01
2.953613374903e+01
3.031182951910e+01
2.920322256432e+01
2.920282598219e+01
2.920111367660e+01
2.919930904656e+01
3.021630882032e+01
3.022869110617e+01
3.025026512289e+01
3.019876327321e+01
2.932644385278e+01
2.966550579911e+01
3.010514343835e+01
3.011773932179e+01
2.965464453203e+01
2.932547171089e+01
2.930550424572e+01
2.945380902717e+01
2.933804831777e+01
2.932630654348e+01
2.966498295332e+01
3.010736119155e+01
2.930728302700e+01
2.945452508712e+01
2.933481438404e+01
2.932173898023e+01
2.967752106613e+01
3.009674942281e+01
2.930584876822e+01
2.945419788927e+01
2.933883047924e+01
2.933798657701e+01
2.945420905808e+01
2.930555620525e+01
2.969351154717e+01
2.944659775583e+01
2.969135915165e+01
2.945135877850e+01
2.969166208184e+01
2.945079735920e+01
2.968960439863e+01
2.944202481720e+01
3.057297501661e+01
2.924452060025e+01
2.924417373910e+01
2.924391167056e+01
2.924166823868e+01
2.975060512979e+01
2.975300780235e+01
2.975676914070e+01
2.974858343955e+01
2.931862507815e+01
2.948902915952e+01
2.967300803153e+01
2.967761394578e+01
2.948442551522e+01
2.931876503447e+01
2.931243475409e+01
2.939984175812e+01
2.932684320411e+01
2.931834351439e+01
2.948907791527e+01
2.967439661679e+01
2.931335233670e+01
2.940018415911e+01
2.932511937939e+01
2.931545671171e+01
2.949489471835e+01
2.967168805312e+01
2.931246007128e+01
2.940003829530e+01
2.932719662866e+01
2.932676587597e+01
2.939996083871e+01
2.931238380278e+01
2.951629335607e+01
2.938712783011e+01
2.951527599173e+01
2.939059669387e+01
2.951578805945e+01
2.938898713172e+01
2.951458769101e+01
2.938466261589e+01
2.970798949066e+01
2.930075033689e+01
2.930046105936e+01
2.930025379893e+01
2.929944235779e+01
2.951126088931e+01
2.951248659039e+01
2.951499921468e+01
2.950896658944e+01
2.933908013899e+01
2.941421502451e+01
2.948837965689e+01
2.949039083300e+01
2.941219863286e+01
2.933942606085e+01
2.933921195160e+01
2.938353624359e+01
2.934465703371e+01
2.933883214838e+01
2.941429475100e+01
2.948889452336e+01
2.933952256819e+01
2.938375026330e+01
2.934385029710e+01
2.933726427640e+01
2.941691197925e+01
2.948761123682e+01
2.933905567444e+01
2.938371555058e+01
2.934465756534e+01
2.934447601387e+01
2.938355964636e+01
2.933916744929e+01
2.943025223721e+01
2.937283438786e+01
2.942988622150e+01
2.937488822455e+01
2.943039971372e+01
2.937357434792e+01
2.942971768108e+01
2.937173631761e+01
2.952274790853e+01
2.961415180348e+01
2.961414192153e+01
2.961405287492e+01
2.961427034213e+01
2.959938067219e+01
2.959926635655e+01
2.959898472377e+01
2.959967649889e+01
2.961232496389e+01
2.960723798793e+01
2.960128314690e+01
2.960111756994e+01
2.960734396439e+01
2.961230035387e+01
2.961276538894e+01
2.961062877618e+01
2.961232967414e+01
2.961233014724e+01
2.960724664184e+01
2.960125650287e+01
2.961274240723e+01
2.961064608930e+01
2.961238973460e+01
2.961238725449e+01