# vtk DataFile Version 3.0
Unstructured Grid from OpenGeoSys
ASCII
DATASET UNSTRUCTURED_GRID
FIELD TimesAndCycles 2
TIME 1 1 double
3.600000000000e+03
CYLCE 1 1 long
1
POINTS 1394 double
0.000000000000e+00 0.000000000000e+00 0.000000000000e+00
5.000000000000e+00 0.000000000000e+00 0.000000000000e+00
5.000000000000e+00 5.000000000000e+00 0.000000000000e+00
0.000000000000e+00 5.000000000000e+00 0.000000000000e+00
2.244234909000e+00 2.244234909000e+00 0.000000000000e+00
2.755765091000e+00 2.244234909000e+00 0.000000000000e+00
2.755765091000e+00 2.755765091000e+00 0.000000000000e+00
2.244234909000e+00 2.755765091000e+00 0.000000000000e+00
7.141316008320e-01 7.141316008320e-01 0.000000000000e+00
1.314642334730e+00 1.314642334730e+00 0.000000000000e+00
1.819609643610e+00 1.819609643610e+00 0.000000000000e+00
1.819609643610e+00 3.180390356390e+00 0.000000000000e+00
1.314642334740e+00 3.685357665260e+00 0.000000000000e+00
7.141316008360e-01 4.285868399160e+00 0.000000000000e+00
0.000000000000e+00 3.750000000000e+00 0.000000000000e+00
0.000000000000e+00 2.500000000000e+00 0.000000000000e+00
0.000000000000e+00 1.250000000000e+00 0.000000000000e+00
4.285868399170e+00 7.141316008320e-01 0.000000000000e+00
3.685357665270e+00 1.314642334730e+00 0.000000000000e+00
3.180390356390e+00 1.819609643610e+00 0.000000000000e+00
1.250000000000e+00 0.000000000000e+00 0.000000000000e+00
2.500000000000e+00 0.000000000000e+00 0.000000000000e+00
3.750000000000e+00 0.000000000000e+00 0.000000000000e+00
4.285868399170e+00 4.285868399170e+00 0.000000000000e+00
3.685357665270e+00 3.685357665270e+00 0.000000000000e+00
3.180390356390e+00 3.180390356390e+00 0.000000000000e+00
5.000000000000e+00 1.250000000000e+00 0.000000000000e+00
5.000000000000e+00 2.500000000000e+00 0.000000000000e+00
5.000000000000e+00 3.750000000000e+00 0.000000000000e+00
3.750000000000e+00 5.000000000000e+00 0.000000000000e+00
2.500000000000e+00 5.000000000000e+00 0.000000000000e+00
1.250000000000e+00 5.000000000000e+00 0.000000000000e+00
9.560744151940e-01 2.677827143250e+00 0.000000000000e+00
6.659597640160e-01 1.438876720610e+00 0.000000000000e+00
2.309219871940e+00 9.522638293400e-01 0.000000000000e+00
3.458157207860e+00 6.354750772000e-01 0.000000000000e+00
4.043925584810e+00 2.322172856750e+00 0.000000000000e+00
4.334040235980e+00 3.561123279390e+00 0.000000000000e+00
2.318530875810e+00 4.048536535600e+00 0.000000000000e+00
3.552396921680e+00 4.370927842320e+00 0.000000000000e+00
2.500000000000e+00 2.500000000000e+00 0.000000000000e+00
0.000000000000e+00 0.000000000000e+00 -5.000000000000e-01
5.000000000000e+00 0.000000000000e+00 -5.000000000000e-01
5.000000000000e+00 5.000000000000e+00 -5.000000000000e-01
0.000000000000e+00 5.000000000000e+00 -5.000000000000e-01
2.244234909000e+00 2.244234909000e+00 -5.000000000000e-01
2.755765091000e+00 2.244234909000e+00 -5.000000000000e-01
2.755765091000e+00 2.755765091000e+00 -5.000000000000e-01
2.244234909000e+00 2.755765091000e+00 -5.000000000000e-01
7.141316008320e-01 7.141316008320e-01 -5.000000000000e-01
1.314642334730e+00 1.314642334730e+00 -5.000000000000e-01
1.819609643610e+00 1.819609643610e+00 -5.000000000000e-01
1.819609643610e+00 3.180390356390e+00 -5.000000000000e-01
1.314642334740e+00 3.685357665260e+00 -5.000000000000e-01
7.141316008360e-01 4.285868399160e+00 -5.000000000000e-01
0.000000000000e+00 3.750000000000e+00 -5.000000000000e-01
0.000000000000e+00 2.500000000000e+00 -5.000000000000e-01
0.000000000000e+00 1.250000000000e+00 -5.000000000000e-01
4.285868399170e+00 7.141316008320e-01 -5.000000000000e-01
3.685357665270e+00 1.314642334730e+00 -5.000000000000e-01
3.180390356390e+00 1.819609643610e+00 -5.000000000000e-01
1.250000000000e+00 0.000000000000e+00 -5.000000000000e-01
2.500000000000e+00 0.000000000000e+00 -5.000000000000e-01
3.750000000000e+00 0.000000000000e+00 -5.000000000000e-01
4.285868399170e+00 4.285868399170e+00 -5.000000000000e-01
3.685357665270e+00 3.685357665270e+00 -5.000000000000e-01
3.180390356390e+00 3.180390356390e+00 -5.000000000000e-01
5.000000000000e+00 1.250000000000e+00 -5.000000000000e-01
5.000000000000e+00 2.500000000000e+00 -5.000000000000e-01
5.000000000000e+00 3.750000000000e+00 -5.000000000000e-01
3.750000000000e+00 5.000000000000e+00 -5.000000000000e-01
2.500000000000e+00 5.000000000000e+00 -5.000000000000e-01
1.250000000000e+00 5.000000000000e+00 -5.000000000000e-01
9.560744151940e-01 2.677827143250e+00 -5.000000000000e-01
6.659597640160e-01 1.438876720610e+00 -5.000000000000e-01
2.309219871940e+00 9.522638293400e-01 -5.000000000000e-01
3.458157207860e+00 6.354750772000e-01 -5.000000000000e-01
4.043925584810e+00 2.322172856750e+00 -5.000000000000e-01
4.334040235980e+00 3.561123279390e+00 -5.000000000000e-01
2.318530875810e+00 4.048536535600e+00 -5.000000000000e-01
3.552396921680e+00 4.370927842320e+00 -5.000000000000e-01
2.500000000000e+00 2.500000000000e+00 -5.000000000000e-01
0.000000000000e+00 0.000000000000e+00 -1.000000000000e+00
5.000000000000e+00 0.000000000000e+00 -1.000000000000e+00
5.000000000000e+00 5.000000000000e+00 -1.000000000000e+00
0.000000000000e+00 5.000000000000e+00 -1.000000000000e+00
2.244234909000e+00 2.244234909000e+00 -1.000000000000e+00
2.755765091000e+00 2.244234909000e+00 -1.000000000000e+00
2.755765091000e+00 2.755765091000e+00 -1.000000000000e+00
2.244234909000e+00 2.755765091000e+00 -1.000000000000e+00
7.141316008320e-01 7.141316008320e-01 -1.000000000000e+00
1.314642334730e+00 1.314642334730e+00 -1.000000000000e+00
1.819609643610e+00 1.819609643610e+00 -1.000000000000e+00
1.819609643610e+00 3.180390356390e+00 -1.000000000000e+00
1.314642334740e+00 3.685357665260e+00 -1.000000000000e+00
7.141316008360e-01 4.285868399160e+00 -1.000000000000e+00
0.000000000000e+00 3.750000000000e+00 -1.000000000000e+00
0.000000000000e+00 2.500000000000e+00 -1.000000000000e+00
0.000000000000e+00 1.250000000000e+00 -1.000000000000e+00
4.285868399170e+00 7.141316008320e-01 -1.000000000000e+00
3.685357665270e+00 1.314642334730e+00 -1.000000000000e+00
3.180390356390e+00 1.819609643610e+00 -1.000000000000e+00
1.250000000000e+00 0.000000000000e+00 -1.000000000000e+00
2.500000000000e+00 0.000000000000e+00 -1.000000000000e+00
3.750000000000e+00 0.000000000000e+00 -1.000000000000e+00
4.285868399170e+00 4.285868399170e+00 -1.000000000000e+00
3.685357665270e+00 3.685357665270e+00 -1.000000000000e+00
3.180390356390e+00 3.180390356390e+00 -1.000000000000e+00
5.000000000000e+00 1.250000000000e+00 -1.000000000000e+00
5.000000000000e+00 2.500000000000e+00 -1.000000000000e+00
5.000000000000e+00 3.750000000000e+00 -1.000000000000e+00
3.750000000000e+00 5.000000000000e+00 -1.000000000000e+00
2.500000000000e+00 5.000000000000e+00 -1.000000000000e+00
1.250000000000e+00 5.000000000000e+00 -1.000000000000e+00
9.560744151940e-01 2.677827143250e+00 -1.000000000000e+00
6.659597640160e-01 1.438876720610e+00 -1.000000000000e+00
2.309219871940e+00 9.522638293400e-01 -1.000000000000e+00
3.458157207860e+00 6.354750772000e-01 -1.000000000000e+00
4.043925584810e+00 2.322172856750e+00 -1.000000000000e+00
4.334040235980e+00 3.561123279390e+00 -1.000000000000e+00
2.318530875810e+00 4.048536535600e+00 -1.000000000000e+00
3.552396921680e+00 4.370927842320e+00 -1.000000000000e+00
2.500000000000e+00 2.500000000000e+00 -1.000000000000e+00
0.000000000000e+00 0.000000000000e+00 -3.000000000000e+00
5.000000000000e+00 0.000000000000e+00 -3.000000000000e+00
5.000000000000e+00 5.000000000000e+00 -3.000000000000e+00
0.000000000000e+00 5.000000000000e+00 -3.000000000000e+00
2.244234909000e+00 2.244234909000e+00 -3.000000000000e+00
2.755765091000e+00 2.244234909000e+00 -3.000000000000e+00
2.755765091000e+00 2.755765091000e+00 -3.000000000000e+00
2.244234909000e+00 2.755765091000e+00 -3.000000000000e+00
7.141316008320e-01 7.141316008320e-01 -3.000000000000e+00
1.314642334730e+00 1.314642334730e+00 -3.000000000000e+00
1.819609643610e+00 1.819609643610e+00 -3.000000000000e+00
1.819609643610e+00 3.180390356390e+00 -3.000000000000e+00
1.314642334740e+00 3.685357665260e+00 -3.000000000000e+00
7.141316008360e-01 4.285868399160e+00 -3.000000000000e+00
0.000000000000e+00 3.750000000000e+00 -3.000000000000e+00
0.000000000000e+00 2.500000000000e+00 -3.000000000000e+00
0.000000000000e+00 1.250000000000e+00 -3.000000000000e+00
4.285868399170e+00 7.141316008320e-01 -3.000000000000e+00
3.685357665270e+00 1.314642334730e+00 -3.000000000000e+00
3.180390356390e+00 1.819609643610e+00 -3.000000000000e+00
1.250000000000e+00 0.000000000000e+00 -3.000000000000e+00
2.500000000000e+00 0.000000000000e+00 -3.000000000000e+00
3.750000000000e+00 0.000000000000e+00 -3.000000000000e+00
4.285868399170e+00 4.285868399170e+00 -3.000000000000e+00
3.685357665270e+00 3.685357665270e+00 -3.000000000000e+00
3.180390356390e+00 3.180390356390e+00 -3.000000000000e+00
5.000000000000e+00 1.250000000000e+00 -3.000000000000e+00
5.000000000000e+00 2.500000000000e+00 -3.000000000000e+00
5.000000000000e+00 3.750000000000e+00 -3.000000000000e+00
3.750000000000e+00 5.000000000000e+00 -3.000000000000e+00
2.500000000000e+00 5.000000000000e+00 -3.000000000000e+00
1.250000000000e+00 5.000000000000e+00 -3.000000000000e+00
9.560744151940e-01 2.677827143250e+00 -3.000000000000e+00
6.659597640160e-01 1.438876720610e+00 -3.000000000000e+00
2.309219871940e+00 9.522638293400e-01 -3.000000000000e+00
3.458157207860e+00 6.354750772000e-01 -3.000000000000e+00
4.043925584810e+00 2.322172856750e+00 -3.000000000000e+00
4.334040235980e+00 3.561123279390e+00 -3.000000000000e+00
2.318530875810e+00 4.048536535600e+00 -3.000000000000e+00
3.552396921680e+00 4.370927842320e+00 -3.000000000000e+00
2.500000000000e+00 2.500000000000e+00 -3.000000000000e+00
0.000000000000e+00 0.000000000000e+00 -5.000000000000e+00
5.000000000000e+00 0.000000000000e+00 -5.000000000000e+00
5.000000000000e+00 5.000000000000e+00 -5.000000000000e+00
0.000000000000e+00 5.000000000000e+00 -5.000000000000e+00
2.244234909000e+00 2.244234909000e+00 -5.000000000000e+00
[...]
POINT_DATA 1394
SCALARS TEMPERATURE1 double 1
LOOKUP_TABLE default
1.000000000000e+01
1.000000000000e+01
1.000000000000e+01
1.000000000000e+01
1.000000000000e+01
1.000000000000e+01
1.000000000000e+01
1.000000000000e+01
1.000000000000e+01
1.000000000000e+01
1.000000000000e+01
1.000000000000e+01
1.000000000000e+01
1.000000000000e+01
1.000000000000e+01
1.000000000000e+01
1.000000000000e+01
1.000000000000e+01
1.000000000000e+01
1.000000000000e+01
1.000000000000e+01
1.000000000000e+01
1.000000000000e+01
1.000000000000e+01
1.000000000000e+01
1.000000000000e+01
1.000000000000e+01
1.000000000000e+01
1.000000000000e+01
1.000000000000e+01
1.000000000000e+01
1.000000000000e+01
1.000000000000e+01
1.000000000000e+01
1.000000000000e+01
1.000000000000e+01
1.000000000000e+01
1.000000000000e+01
1.000000000000e+01
1.000000000000e+01
1.000000000000e+01
1.736377696042e+01
1.736309802248e+01
1.735664486296e+01
1.736175243265e+01
2.063991134993e+01
2.062442725525e+01
2.075148028917e+01
2.040169131768e+01
1.754530293963e+01
1.815829925339e+01
1.944137910476e+01
1.948634390449e+01
1.812226234308e+01
1.754604974299e+01
1.750060710511e+01
1.771228090251e+01
1.755761142516e+01
1.754479979248e+01
1.815446022515e+01
1.943263494860e+01
1.750152739876e+01
1.771333084746e+01
1.755225222538e+01
1.753332729956e+01
1.819325467186e+01
1.938355076877e+01
1.749858765183e+01
1.771191829574e+01
1.755943054488e+01
1.755776755440e+01
1.771269589864e+01
1.750016325872e+01
1.809535543312e+01
1.772792156540e+01
1.809406073689e+01
1.773127558535e+01
1.809798953016e+01
1.773561624778e+01
1.809114288329e+01
1.772024430864e+01
2.025982562436e+01
2.504242219806e+01
2.504076713184e+01
2.502363311598e+01
2.504207942448e+01
3.279448736737e+01
3.294724512505e+01
3.278605865360e+01
3.329067739411e+01
2.543285985003e+01
2.692205366913e+01
2.967798317697e+01
2.970986473169e+01
2.686122639799e+01
2.542289702012e+01
2.530128104463e+01
2.577913782419e+01
2.546338697616e+01
2.543489302069e+01
2.691631013444e+01
2.966628396607e+01
2.530686271505e+01
2.578411358307e+01
2.544944812372e+01
2.541853596914e+01
2.698162646844e+01
2.964529037339e+01
2.530410333190e+01
2.578339299092e+01
2.546431503286e+01
2.546163635593e+01
2.578304926180e+01
2.530432561175e+01
2.681445167394e+01
2.585004468754e+01
2.680111183875e+01
2.585694200204e+01
2.679453982949e+01
2.587562356365e+01
2.678991161227e+01
2.583596241176e+01
3.826036775636e+01
2.927819289189e+01
2.927639017384e+01
2.926142637755e+01
2.927335455599e+01
3.681043673389e+01
3.692619062744e+01
3.677916122041e+01
3.724379272802e+01
2.973178072396e+01
3.133605615997e+01
3.400538825298e+01
3.404044166750e+01
3.127677707916e+01
2.972181979427e+01
2.959591626497e+01
3.015231622161e+01
2.976838297773e+01
2.973369440981e+01
3.133052625162e+01
3.400399883208e+01
2.960285369162e+01
3.015691158790e+01
2.975306280174e+01
2.971701908027e+01
3.139554242572e+01
3.398617864630e+01
2.959932467435e+01
3.015647426427e+01
2.977043903894e+01
2.976739234909e+01
3.015648483069e+01
2.959890235032e+01
3.129283234870e+01
3.020766564310e+01
3.127815747091e+01
3.021848560533e+01
3.127111616149e+01
3.023372015776e+01
3.126657527004e+01
3.019112874334e+01
4.104172086663e+01
3.183166401943e+01
3.182993907248e+01
3.181712136131e+01
3.182649641107e+01
3.885754273842e+01
3.895467485188e+01
3.884739181748e+01
3.919073095787e+01
3.225445961080e+01
3.371142389444e+01
3.618830783324e+01
3.622442773351e+01
3.365529013797e+01
3.224723097302e+01
3.213587338856e+01
3.264921321129e+01
3.228833567314e+01
3.225568233410e+01
3.370637045054e+01
3.618371343731e+01
3.214166206418e+01
3.265315486817e+01
3.227437975018e+01
3.223871935238e+01
3.376850525091e+01
3.616123049443e+01
3.213794015965e+01
3.265245806324e+01
3.229045020592e+01
3.228764103428e+01
3.265269273487e+01
3.213815776615e+01
3.366777718771e+01
3.269221078404e+01
3.365539661895e+01
3.270244284818e+01
3.365088574530e+01
3.271533778042e+01
3.364552255070e+01
3.267693339099e+01
4.339867606684e+01
3.325708036837e+01
3.325542723642e+01
3.324349325735e+01
3.325163651735e+01
4.020260289951e+01
4.027828146027e+01
4.019135542592e+01
4.047058647519e+01
3.366620591856e+01
3.506196304006e+01
3.747189964152e+01
3.750972704357e+01
3.500618208212e+01
3.366033542411e+01
3.355426766942e+01
3.404852011559e+01
3.369819522084e+01
3.366716068705e+01
3.505691903361e+01
3.746619964101e+01
3.355958866441e+01
3.405212036644e+01
3.368487414651e+01
3.364977218621e+01
3.511876450641e+01
3.744118592371e+01
3.355574373369e+01
3.405124926268e+01
3.370049800155e+01
3.369772411286e+01
3.405165749864e+01
3.355620095468e+01
3.501526509020e+01
3.408744201452e+01
3.500403909522e+01
3.409730047139e+01
3.500068861936e+01
3.410916629354e+01
3.499475594591e+01
3.407253061270e+01
4.496216023497e+01
3.399911522567e+01
3.399766214449e+01
3.398677571768e+01
3.399278187609e+01
4.106113624472e+01
4.111494354269e+01
4.105368725882e+01
4.125295494950e+01
3.440189103408e+01
3.576287424375e+01
3.817218023999e+01
3.821358430360e+01
3.570569027766e+01
3.439757286248e+01
3.429373084560e+01
3.477668977782e+01
3.443115199732e+01
3.440255721162e+01
3.575772930458e+01
3.816422347929e+01
3.429873081454e+01
3.477996199986e+01
3.441826683743e+01
3.438392302103e+01
3.582124597773e+01
3.813437873264e+01
3.429458249270e+01
3.477872427395e+01
3.443385876820e+01
3.443105587158e+01
3.477942755826e+01
3.429519789298e+01
3.570814361839e+01
3.481383373323e+01
3.569814958139e+01
3.482328050738e+01
3.569626174040e+01
3.483440494286e+01
3.568931283669e+01
3.479886527043e+01
4.636574000525e+01
3.434275534348e+01
3.434120788350e+01
3.432979997626e+01
3.433785368606e+01
4.076698136530e+01
4.084361135091e+01
4.076647176567e+01
4.101835230712e+01
3.472626757061e+01
3.604153171347e+01
3.830400156877e+01
3.834008755921e+01
3.598934317084e+01
3.472042412586e+01
3.462000871963e+01
3.508421815590e+01
3.475634604396e+01
3.472720996159e+01
3.603678252479e+01
3.829903958250e+01
3.462504131488e+01
3.508762355777e+01
3.474379383534e+01
3.471122138233e+01
3.609457833531e+01
3.827449353496e+01
3.462146332193e+01
3.508684276279e+01
3.475848004584e+01
3.475587362725e+01
3.508721399687e+01
3.462186591429e+01
3.599804714110e+01
3.512218186319e+01
3.598737895819e+01
3.513136596440e+01
3.598409661174e+01
3.514273461005e+01
3.597864808994e+01
3.510817846749e+01
4.542593729786e+01
3.462843388475e+01
3.462707257481e+01
3.461681836069e+01
3.462234798891e+01
4.114478094569e+01
4.119291415784e+01
4.116645150234e+01
4.126672303991e+01
3.500951473492e+01
3.628964950728e+01
3.856621096818e+01
3.860972879669e+01
3.623486239977e+01
3.500586401240e+01
3.490882194916e+01
3.536495254232e+01
3.503718097917e+01
3.500996147070e+01
3.628469803057e+01
3.855828050028e+01
3.491334932407e+01
3.536792041744e+01
3.502510555729e+01
3.499208466510e+01
3.634551340879e+01
3.852365988976e+01
3.490922012614e+01
3.536662512149e+01
3.503985979892e+01
3.503715951001e+01
3.536737999236e+01
3.490998422427e+01
3.623717133242e+01
3.539831383671e+01
3.622828615929e+01
3.540726904594e+01
3.622739124046e+01
3.541734356517e+01
3.622027498677e+01
3.538402011504e+01
4.699877282964e+01
3.449303982532e+01
3.449167112314e+01
3.448164261466e+01
3.448694769020e+01
4.095986246512e+01
4.100132446318e+01
4.098194943495e+01
4.105997226834e+01
3.486932445759e+01
3.612469345828e+01
3.837189105575e+01
3.841586125127e+01
3.607015399130e+01
3.486617396616e+01
3.477189467665e+01
3.522116488163e+01
3.489681573674e+01
3.486965407186e+01
3.611977553774e+01
3.836351738397e+01
3.477621703328e+01
3.522404206609e+01
3.488498880339e+01
3.485163584605e+01
3.618033052352e+01
3.832804775010e+01
3.477205547979e+01
3.522270221361e+01
3.489948745796e+01
3.489681134872e+01
3.522346614238e+01
3.477293773803e+01
3.607174809511e+01
3.525192130005e+01
3.606330012332e+01
3.526082451425e+01
3.606285716249e+01
3.527040879171e+01
3.605553662061e+01
3.523780772165e+01
4.657161726533e+01
3.424364162515e+01
3.424231258319e+01
3.423242598520e+01
3.423766747822e+01
4.060826976438e+01
4.064717336505e+01
4.063418416906e+01
4.069338439313e+01
3.461278540577e+01
3.584461327780e+01
3.806062182804e+01
3.810484112741e+01
3.579059770587e+01
3.460982487124e+01
3.451731217273e+01
3.495768394187e+01
3.463963654280e+01
3.461307586056e+01
3.583972582591e+01
3.805206947245e+01
3.452150320303e+01
3.496049581849e+01
3.462805488853e+01
3.459522033406e+01
3.589963954866e+01
3.801579824623e+01
3.451737437131e+01
3.495913312118e+01
3.464228741170e+01
3.463964786519e+01
3.495990252779e+01
3.451828268661e+01
3.579051022826e+01
3.498795673270e+01
3.578236988161e+01
3.499663026101e+01
3.578214628235e+01
3.500602339480e+01
3.577478791716e+01
3.497406341919e+01
4.607211280687e+01
3.399304344035e+01
3.399174535921e+01
3.398193210175e+01
3.398721922328e+01
4.026164099326e+01
4.029961315575e+01
4.029083858319e+01
4.033787415518e+01
3.435603343998e+01
3.556908354341e+01
3.775821470347e+01
3.780246059334e+01
3.551560240886e+01
3.435314411831e+01
3.426195666294e+01
3.469488148352e+01
3.438238703204e+01
3.435631004434e+01
3.556422642414e+01
3.774961794505e+01
3.426605486123e+01
3.469765284328e+01
3.437099897630e+01
3.433867338304e+01
3.562348433313e+01
3.771289011329e+01
3.426197365675e+01
3.469628730325e+01
3.438500256244e+01
3.438239710033e+01
3.469704953991e+01
3.426288868191e+01
3.551419733388e+01
3.472503851155e+01
3.550625840498e+01
3.473351048897e+01
3.550613902465e+01
3.474280223095e+01
3.549880678746e+01
3.471134242399e+01
4.556139964198e+01
3.377879779807e+01
3.377753019761e+01
3.376776684222e+01
3.377311479581e+01
3.996173282026e+01
3.999948781798e+01
3.999390710434e+01
4.003189343461e+01
3.413642421518e+01
3.533417867241e+01
3.750073901624e+01
3.754495123284e+01
3.528118344046e+01
3.413355129241e+01
3.404332828273e+01
3.446987368383e+01
3.416231360449e+01
3.413670009501e+01
3.532934726681e+01
3.749214719364e+01
3.404735992199e+01
3.447261503345e+01
3.415108371070e+01
3.411928669769e+01
3.538800668562e+01
3.745509285808e+01
3.404332748106e+01
3.447125148826e+01
3.416489751004e+01
3.416232194924e+01
3.447200698002e+01
3.404423625206e+01
3.527860312198e+01
3.450020317418e+01
3.527080928853e+01
3.450848789461e+01
3.527074033955e+01
3.451773541490e+01
3.526345552491e+01
3.448667613558e+01
4.513156832295e+01
3.359186907346e+01
3.359062928645e+01
3.358088429434e+01
3.358631924456e+01
3.970091244448e+01
3.973922860430e+01
3.973582588454e+01
3.976789515942e+01
3.394511545604e+01
3.513161081120e+01
3.728064287421e+01
3.732477825913e+01
3.507903606972e+01
3.394220051893e+01
3.385255789580e+01
3.427402925305e+01
3.397060530685e+01
3.394540353441e+01
3.512679927479e+01
3.727211015592e+01
3.385655064695e+01
3.427675303440e+01
3.395949249965e+01
3.392821343784e+01
3.518493625589e+01
3.723484522045e+01
3.385256660580e+01
3.427539703739e+01
3.397316060036e+01
3.397060956175e+01
3.427614513021e+01
3.385345751311e+01
3.507547778368e+01
3.430480012807e+01
3.506776761284e+01
3.431291993575e+01
3.506769426094e+01
3.432218101885e+01
3.506047652196e+01
3.429140829640e+01
4.477271081232e+01
3.335759755716e+01
3.335638978618e+01
3.334659526829e+01
3.335218468584e+01
3.940132320834e+01
3.944191872241e+01
3.944027490654e+01
3.946823938516e+01
3.370772891232e+01
3.488957028110e+01
3.702997790254e+01
3.707414139178e+01
3.483728924912e+01
3.370465258446e+01
3.361484941940e+01
3.403302862968e+01
3.373284866208e+01
3.370805372967e+01
3.488476270184e+01
3.702158597619e+01
3.361884944303e+01
3.403575516720e+01
3.372179039672e+01
3.369111016851e+01
3.494250672875e+01
3.698400945649e+01
3.361491360762e+01
3.403441145621e+01
3.373538345378e+01
3.373284759099e+01
3.403515418109e+01
3.361576266155e+01
3.483278779624e+01
3.406495117289e+01
3.482506968554e+01
3.407291144869e+01
3.482491017039e+01
3.408231205169e+01
3.481778648515e+01
3.405163763419e+01
4.444305926891e+01
3.298075808367e+01
3.297958567792e+01
3.296947428731e+01
3.297579092290e+01
3.888018325875e+01
3.893056801519e+01
3.892409026295e+01
3.896919794397e+01
3.332603318729e+01
3.450849746576e+01
3.663310925064e+01
3.667619510276e+01
3.445717782597e+01
3.332220145157e+01
3.323107547227e+01
3.364536544910e+01
3.335084338311e+01
3.332652846422e+01
3.450372127742e+01
3.662562334983e+01
3.323520921487e+01
3.364817666036e+01
3.333977612892e+01
3.331040659749e+01
3.456023990625e+01
3.658903821401e+01
3.323145701359e+01
3.364694655236e+01
3.335326000431e+01
3.335076087366e+01
3.364761912652e+01
3.323214241854e+01
3.445227429995e+01
3.368068161865e+01
3.444418993615e+01
3.368838546060e+01
3.444341305686e+01
3.369832479015e+01
3.443676922091e+01
3.366752610097e+01
4.393590815459e+01
3.293352886004e+01
3.293239487869e+01
3.292229037346e+01
3.292863580354e+01
3.876704761839e+01
3.881940032808e+01
3.881439584645e+01
3.885607548348e+01
3.327590451641e+01
3.445370578333e+01
3.656789535484e+01
3.661093387052e+01
3.440273193099e+01
3.327192655911e+01
3.318060059670e+01
3.359184288245e+01
3.330027973038e+01
3.327643520831e+01
3.444894542944e+01
3.656058416906e+01
3.318475478375e+01
3.359464728205e+01
3.328926562293e+01
3.326054896961e+01
3.450503656629e+01
3.652381837610e+01
3.318104476024e+01
3.359342561664e+01
3.330269222513e+01
3.330020667678e+01
3.359410220250e+01
3.318167596091e+01
3.439729354186e+01
3.362825606235e+01
3.438920072575e+01
3.363581637453e+01
3.438833712157e+01
3.364586859022e+01
3.438178841519e+01
3.361516651604e+01
4.382217635496e+01
3.289638637175e+01
3.289527729494e+01
3.288504024017e+01
3.289180500624e+01
3.862650403467e+01
3.868317407859e+01
3.867669796146e+01
3.872402493599e+01
3.323339375966e+01
3.440241464342e+01
3.649747937766e+01
3.653986603758e+01
3.435214096850e+01
3.322909137246e+01
3.313779361585e+01
3.354346274118e+01
3.325740086247e+01
3.323400189456e+01
3.439768011755e+01
3.649052991164e+01
3.314196210820e+01
3.354629445374e+01
3.324647376875e+01
3.321860301464e+01
3.445288573877e+01
3.645421779077e+01
3.313836889515e+01
3.354512893707e+01
3.325972796546e+01
3.325727849324e+01
3.354576257423e+01
3.313893153438e+01
3.434559006825e+01
3.358145453423e+01
3.433740892443e+01
3.358878949006e+01
3.433628385992e+01
3.359907223389e+01
3.432998567543e+01
3.356855019597e+01
4.363484431637e+01
3.277294564034e+01
3.277188609800e+01
3.276174492577e+01
3.276820781448e+01
3.835964274287e+01
3.842126651833e+01
3.841308094869e+01
3.846695609252e+01
3.310934246787e+01
3.427700026303e+01
3.634285662080e+01
3.638436065803e+01
3.422777265908e+01
3.310467312734e+01
3.301317922824e+01
3.341908985023e+01
3.313331375724e+01
3.311002045350e+01
3.427239908110e+01
3.633677909763e+01
3.301751566176e+01
3.342194769786e+01
3.312239285158e+01
3.309504350875e+01
3.432645130718e+01
3.630138117412e+01
3.301398471766e+01
3.342082695374e+01
3.313561267693e+01
3.313317811283e+01
3.342142039822e+01
3.301435974548e+01
3.422515272262e+01
3.345737722185e+01
3.421680278981e+01
3.346480529979e+01
3.421538505250e+01
3.347502374035e+01
3.420933927652e+01
3.344447690279e+01
4.343981311639e+01
3.229379550096e+01
3.229293196697e+01
3.228139057785e+01
3.229007873431e+01
3.800995651016e+01
3.808459588406e+01
3.807369696145e+01
3.814059912370e+01
3.262412168211e+01
3.382696604006e+01
3.598786542366e+01
3.603076416890e+01
3.377587534586e+01
3.261797516208e+01
3.251929031575e+01
3.292104068567e+01
3.264635242698e+01
3.262523288470e+01
3.382194652425e+01
3.598172975216e+01
3.252396414967e+01
3.292420574225e+01
3.263526474825e+01
3.261078673267e+01
3.387719563176e+01
3.594427628193e+01
3.252069768085e+01
3.292305980852e+01
3.264853800791e+01
3.264606344840e+01
3.292357275316e+01
3.252071081506e+01
3.375904060382e+01
3.297207568084e+01
3.375014626601e+01
3.297849430968e+01
3.374773883615e+01
3.299071086266e+01
3.374198234295e+01
3.295905819151e+01
4.287020631610e+01
3.124985634676e+01
3.124937001650e+01
3.124198947436e+01
3.124743424651e+01
3.617745799016e+01
3.619496000389e+01
3.615675361898e+01
3.627251933663e+01
3.146161414834e+01
3.224223038421e+01
3.383493525282e+01
3.386203783332e+01
3.220313259201e+01
3.145971444312e+01
3.139473711784e+01
3.164540868395e+01
3.147320070859e+01
3.146217760909e+01
3.223837993377e+01
3.382422375215e+01
3.139725116163e+01
3.164749003729e+01
3.146614213632e+01
3.144969236223e+01
3.228063373445e+01
3.380244458332e+01
3.139497206569e+01
3.164628514726e+01
3.147479072707e+01
3.147318543560e+01
3.164680347660e+01
3.139543882725e+01
3.216132867743e+01
3.168164585381e+01
3.215644346166e+01
3.168473497351e+01
3.215587654482e+01
3.169358831342e+01
3.215084813066e+01
3.167326796984e+01
4.310593218008e+01
3.094004410776e+01
3.093966440582e+01
3.093571100194e+01
3.093682514171e+01
3.321518849632e+01
3.322816857725e+01
3.328246018683e+01
3.314297948329e+01
3.109969389768e+01
3.163262050571e+01
3.256007176421e+01
3.258729071363e+01
3.160899831022e+01
3.109841883250e+01
3.105690106078e+01
3.124849187600e+01
3.110997268587e+01
3.109970340585e+01
3.163034744569e+01
3.255799713740e+01
3.105877676324e+01
3.124942949781e+01
3.110505930285e+01
3.109230597682e+01
3.165643395065e+01
3.253110368993e+01
3.105668123035e+01
3.124866862746e+01
3.111155329288e+01
3.111028506102e+01
3.124926181317e+01
3.105698350765e+01
3.161467254910e+01
3.126294580299e+01
3.161177197559e+01
3.126666315764e+01
3.161262203851e+01
3.127020739603e+01
3.160887095190e+01
3.125643479027e+01
3.223632246597e+01
3.063658725411e+01
3.063608963884e+01
3.063485744470e+01
3.063360614761e+01
3.159755972036e+01
3.160811564755e+01
3.162540875094e+01
3.158478154223e+01
3.074501391635e+01
3.105228893909e+01
3.145929663144e+01
3.147069219901e+01
3.104254890626e+01
3.074436804851e+01
3.072485560573e+01
3.085569645016e+01
3.075453291241e+01
3.074481395682e+01
3.105172787019e+01
3.146115266038e+01
3.072612447841e+01
3.085609000575e+01
3.075147091872e+01
3.074111812305e+01
3.106347961170e+01
3.145203664866e+01
3.072480891133e+01
3.085593877897e+01
3.075546628512e+01
3.075471792011e+01
3.085621303867e+01
3.072497744920e+01
3.107470836029e+01
3.085186003229e+01
3.107253284744e+01
3.085573025671e+01
3.107276873862e+01
3.085587177798e+01
3.107115834565e+01
3.084792754664e+01
3.185798299023e+01
3.035667246193e+01
3.035619947525e+01
3.035620923652e+01
3.035453365818e+01
3.081275448525e+01
3.081520663814e+01
3.081971096119e+01
3.080952141320e+01
3.042330173940e+01
3.057811449455e+01
3.074730828197e+01
3.075178439189e+01
3.057408744261e+01
3.042370786989e+01
3.041768206570e+01
3.049627447635e+01
3.043064624108e+01
3.042293798868e+01
3.057809430493e+01
3.074851648223e+01
3.041819439931e+01
3.049638155591e+01
3.042894926588e+01
3.042063613927e+01
3.058365536987e+01
3.074593236533e+01
3.041733668604e+01
3.049638211276e+01
3.043110412181e+01
3.043073344173e+01
3.049650051884e+01
3.041768298542e+01
3.060229975154e+01
3.048515070303e+01
3.060121763326e+01
3.048812735340e+01
3.060177976747e+01
3.048698230812e+01
3.060085325551e+01
3.048308462740e+01
3.078906657388e+01
3.011424709924e+01
3.011382020821e+01
3.011379762267e+01
3.011342779631e+01
3.030925776749e+01
3.031035694716e+01
3.031258942781e+01
3.030738331488e+01
3.015011790655e+01
3.021966796188e+01
3.028782811423e+01
3.028977561767e+01
3.021796596887e+01
3.015070051690e+01
3.015074909467e+01
3.019216392791e+01
3.015557061645e+01
3.014978398027e+01
3.021970455387e+01
3.028829404092e+01
3.015075431861e+01
3.019220407917e+01
3.015470854116e+01
3.014856928585e+01
3.022232887412e+01
3.028726085671e+01
3.015028213440e+01
3.019229600785e+01
3.015565425386e+01
3.015550481819e+01
3.019228490886e+01
3.015075400530e+01
3.023493292236e+01
3.018168394366e+01
3.023445632189e+01
3.018353903224e+01
3.023502420394e+01
3.018247839810e+01
3.023452740967e+01
3.018081507835e+01
3.031817319592e+01
2.957288868448e+01
2.957281143909e+01
2.957277127294e+01
2.957309915760e+01
2.956588717564e+01
2.956581001289e+01
2.956564631881e+01
2.956608856710e+01
2.957285997429e+01
2.957064757751e+01
2.956721223347e+01
2.956716360355e+01
2.957073361482e+01
2.957295108068e+01
2.957359939118e+01
2.957349364472e+01
2.957326314379e+01
2.957281653285e+01
2.957064644623e+01
2.956719446570e+01
2.957348216643e+01
2.957346278902e+01
2.957325059234e+01
2.957289132791e+01