# vtk DataFile Version 3.0
Unstructured Grid from OpenGeoSys
ASCII
DATASET UNSTRUCTURED_GRID
FIELD TimesAndCycles 2
TIME 1 1 double
3.600000000000e+03
CYLCE 1 1 long
1
POINTS 1394 double
0.000000000000e+00 0.000000000000e+00 0.000000000000e+00
5.000000000000e+00 0.000000000000e+00 0.000000000000e+00
5.000000000000e+00 5.000000000000e+00 0.000000000000e+00
0.000000000000e+00 5.000000000000e+00 0.000000000000e+00
2.244234909000e+00 2.244234909000e+00 0.000000000000e+00
2.755765091000e+00 2.244234909000e+00 0.000000000000e+00
2.755765091000e+00 2.755765091000e+00 0.000000000000e+00
2.244234909000e+00 2.755765091000e+00 0.000000000000e+00
7.141316008320e-01 7.141316008320e-01 0.000000000000e+00
1.314642334730e+00 1.314642334730e+00 0.000000000000e+00
1.819609643610e+00 1.819609643610e+00 0.000000000000e+00
1.819609643610e+00 3.180390356390e+00 0.000000000000e+00
1.314642334740e+00 3.685357665260e+00 0.000000000000e+00
7.141316008360e-01 4.285868399160e+00 0.000000000000e+00
0.000000000000e+00 3.750000000000e+00 0.000000000000e+00
0.000000000000e+00 2.500000000000e+00 0.000000000000e+00
0.000000000000e+00 1.250000000000e+00 0.000000000000e+00
4.285868399170e+00 7.141316008320e-01 0.000000000000e+00
3.685357665270e+00 1.314642334730e+00 0.000000000000e+00
3.180390356390e+00 1.819609643610e+00 0.000000000000e+00
1.250000000000e+00 0.000000000000e+00 0.000000000000e+00
2.500000000000e+00 0.000000000000e+00 0.000000000000e+00
3.750000000000e+00 0.000000000000e+00 0.000000000000e+00
4.285868399170e+00 4.285868399170e+00 0.000000000000e+00
3.685357665270e+00 3.685357665270e+00 0.000000000000e+00
3.180390356390e+00 3.180390356390e+00 0.000000000000e+00
5.000000000000e+00 1.250000000000e+00 0.000000000000e+00
5.000000000000e+00 2.500000000000e+00 0.000000000000e+00
5.000000000000e+00 3.750000000000e+00 0.000000000000e+00
3.750000000000e+00 5.000000000000e+00 0.000000000000e+00
2.500000000000e+00 5.000000000000e+00 0.000000000000e+00
1.250000000000e+00 5.000000000000e+00 0.000000000000e+00
9.560744151940e-01 2.677827143250e+00 0.000000000000e+00
6.659597640160e-01 1.438876720610e+00 0.000000000000e+00
2.309219871940e+00 9.522638293400e-01 0.000000000000e+00
3.458157207860e+00 6.354750772000e-01 0.000000000000e+00
4.043925584810e+00 2.322172856750e+00 0.000000000000e+00
4.334040235980e+00 3.561123279390e+00 0.000000000000e+00
2.318530875810e+00 4.048536535600e+00 0.000000000000e+00
3.552396921680e+00 4.370927842320e+00 0.000000000000e+00
2.500000000000e+00 2.500000000000e+00 0.000000000000e+00
0.000000000000e+00 0.000000000000e+00 -5.000000000000e-01
5.000000000000e+00 0.000000000000e+00 -5.000000000000e-01
5.000000000000e+00 5.000000000000e+00 -5.000000000000e-01
0.000000000000e+00 5.000000000000e+00 -5.000000000000e-01
2.244234909000e+00 2.244234909000e+00 -5.000000000000e-01
2.755765091000e+00 2.244234909000e+00 -5.000000000000e-01
2.755765091000e+00 2.755765091000e+00 -5.000000000000e-01
2.244234909000e+00 2.755765091000e+00 -5.000000000000e-01
7.141316008320e-01 7.141316008320e-01 -5.000000000000e-01
1.314642334730e+00 1.314642334730e+00 -5.000000000000e-01
1.819609643610e+00 1.819609643610e+00 -5.000000000000e-01
1.819609643610e+00 3.180390356390e+00 -5.000000000000e-01
1.314642334740e+00 3.685357665260e+00 -5.000000000000e-01
7.141316008360e-01 4.285868399160e+00 -5.000000000000e-01
0.000000000000e+00 3.750000000000e+00 -5.000000000000e-01
0.000000000000e+00 2.500000000000e+00 -5.000000000000e-01
0.000000000000e+00 1.250000000000e+00 -5.000000000000e-01
4.285868399170e+00 7.141316008320e-01 -5.000000000000e-01
3.685357665270e+00 1.314642334730e+00 -5.000000000000e-01
3.180390356390e+00 1.819609643610e+00 -5.000000000000e-01
1.250000000000e+00 0.000000000000e+00 -5.000000000000e-01
2.500000000000e+00 0.000000000000e+00 -5.000000000000e-01
3.750000000000e+00 0.000000000000e+00 -5.000000000000e-01
4.285868399170e+00 4.285868399170e+00 -5.000000000000e-01
3.685357665270e+00 3.685357665270e+00 -5.000000000000e-01
3.180390356390e+00 3.180390356390e+00 -5.000000000000e-01
5.000000000000e+00 1.250000000000e+00 -5.000000000000e-01
5.000000000000e+00 2.500000000000e+00 -5.000000000000e-01
5.000000000000e+00 3.750000000000e+00 -5.000000000000e-01
3.750000000000e+00 5.000000000000e+00 -5.000000000000e-01
2.500000000000e+00 5.000000000000e+00 -5.000000000000e-01
1.250000000000e+00 5.000000000000e+00 -5.000000000000e-01
9.560744151940e-01 2.677827143250e+00 -5.000000000000e-01
6.659597640160e-01 1.438876720610e+00 -5.000000000000e-01
2.309219871940e+00 9.522638293400e-01 -5.000000000000e-01
3.458157207860e+00 6.354750772000e-01 -5.000000000000e-01
4.043925584810e+00 2.322172856750e+00 -5.000000000000e-01
4.334040235980e+00 3.561123279390e+00 -5.000000000000e-01
2.318530875810e+00 4.048536535600e+00 -5.000000000000e-01
3.552396921680e+00 4.370927842320e+00 -5.000000000000e-01
2.500000000000e+00 2.500000000000e+00 -5.000000000000e-01
0.000000000000e+00 0.000000000000e+00 -1.000000000000e+00
5.000000000000e+00 0.000000000000e+00 -1.000000000000e+00
5.000000000000e+00 5.000000000000e+00 -1.000000000000e+00
0.000000000000e+00 5.000000000000e+00 -1.000000000000e+00
2.244234909000e+00 2.244234909000e+00 -1.000000000000e+00
2.755765091000e+00 2.244234909000e+00 -1.000000000000e+00
2.755765091000e+00 2.755765091000e+00 -1.000000000000e+00
2.244234909000e+00 2.755765091000e+00 -1.000000000000e+00
7.141316008320e-01 7.141316008320e-01 -1.000000000000e+00
1.314642334730e+00 1.314642334730e+00 -1.000000000000e+00
1.819609643610e+00 1.819609643610e+00 -1.000000000000e+00
1.819609643610e+00 3.180390356390e+00 -1.000000000000e+00
1.314642334740e+00 3.685357665260e+00 -1.000000000000e+00
7.141316008360e-01 4.285868399160e+00 -1.000000000000e+00
0.000000000000e+00 3.750000000000e+00 -1.000000000000e+00
0.000000000000e+00 2.500000000000e+00 -1.000000000000e+00
0.000000000000e+00 1.250000000000e+00 -1.000000000000e+00
4.285868399170e+00 7.141316008320e-01 -1.000000000000e+00
3.685357665270e+00 1.314642334730e+00 -1.000000000000e+00
3.180390356390e+00 1.819609643610e+00 -1.000000000000e+00
1.250000000000e+00 0.000000000000e+00 -1.000000000000e+00
2.500000000000e+00 0.000000000000e+00 -1.000000000000e+00
3.750000000000e+00 0.000000000000e+00 -1.000000000000e+00
4.285868399170e+00 4.285868399170e+00 -1.000000000000e+00
3.685357665270e+00 3.685357665270e+00 -1.000000000000e+00
3.180390356390e+00 3.180390356390e+00 -1.000000000000e+00
5.000000000000e+00 1.250000000000e+00 -1.000000000000e+00
5.000000000000e+00 2.500000000000e+00 -1.000000000000e+00
5.000000000000e+00 3.750000000000e+00 -1.000000000000e+00
3.750000000000e+00 5.000000000000e+00 -1.000000000000e+00
2.500000000000e+00 5.000000000000e+00 -1.000000000000e+00
1.250000000000e+00 5.000000000000e+00 -1.000000000000e+00
9.560744151940e-01 2.677827143250e+00 -1.000000000000e+00
6.659597640160e-01 1.438876720610e+00 -1.000000000000e+00
2.309219871940e+00 9.522638293400e-01 -1.000000000000e+00
3.458157207860e+00 6.354750772000e-01 -1.000000000000e+00
4.043925584810e+00 2.322172856750e+00 -1.000000000000e+00
4.334040235980e+00 3.561123279390e+00 -1.000000000000e+00
2.318530875810e+00 4.048536535600e+00 -1.000000000000e+00
3.552396921680e+00 4.370927842320e+00 -1.000000000000e+00
2.500000000000e+00 2.500000000000e+00 -1.000000000000e+00
0.000000000000e+00 0.000000000000e+00 -3.000000000000e+00
5.000000000000e+00 0.000000000000e+00 -3.000000000000e+00
5.000000000000e+00 5.000000000000e+00 -3.000000000000e+00
0.000000000000e+00 5.000000000000e+00 -3.000000000000e+00
2.244234909000e+00 2.244234909000e+00 -3.000000000000e+00
2.755765091000e+00 2.244234909000e+00 -3.000000000000e+00
2.755765091000e+00 2.755765091000e+00 -3.000000000000e+00
2.244234909000e+00 2.755765091000e+00 -3.000000000000e+00
7.141316008320e-01 7.141316008320e-01 -3.000000000000e+00
1.314642334730e+00 1.314642334730e+00 -3.000000000000e+00
1.819609643610e+00 1.819609643610e+00 -3.000000000000e+00
1.819609643610e+00 3.180390356390e+00 -3.000000000000e+00
1.314642334740e+00 3.685357665260e+00 -3.000000000000e+00
7.141316008360e-01 4.285868399160e+00 -3.000000000000e+00
0.000000000000e+00 3.750000000000e+00 -3.000000000000e+00
0.000000000000e+00 2.500000000000e+00 -3.000000000000e+00
0.000000000000e+00 1.250000000000e+00 -3.000000000000e+00
4.285868399170e+00 7.141316008320e-01 -3.000000000000e+00
3.685357665270e+00 1.314642334730e+00 -3.000000000000e+00
3.180390356390e+00 1.819609643610e+00 -3.000000000000e+00
1.250000000000e+00 0.000000000000e+00 -3.000000000000e+00
2.500000000000e+00 0.000000000000e+00 -3.000000000000e+00
3.750000000000e+00 0.000000000000e+00 -3.000000000000e+00
4.285868399170e+00 4.285868399170e+00 -3.000000000000e+00
3.685357665270e+00 3.685357665270e+00 -3.000000000000e+00
3.180390356390e+00 3.180390356390e+00 -3.000000000000e+00
5.000000000000e+00 1.250000000000e+00 -3.000000000000e+00
5.000000000000e+00 2.500000000000e+00 -3.000000000000e+00
5.000000000000e+00 3.750000000000e+00 -3.000000000000e+00
3.750000000000e+00 5.000000000000e+00 -3.000000000000e+00
2.500000000000e+00 5.000000000000e+00 -3.000000000000e+00
1.250000000000e+00 5.000000000000e+00 -3.000000000000e+00
9.560744151940e-01 2.677827143250e+00 -3.000000000000e+00
6.659597640160e-01 1.438876720610e+00 -3.000000000000e+00
2.309219871940e+00 9.522638293400e-01 -3.000000000000e+00
3.458157207860e+00 6.354750772000e-01 -3.000000000000e+00
4.043925584810e+00 2.322172856750e+00 -3.000000000000e+00
4.334040235980e+00 3.561123279390e+00 -3.000000000000e+00
2.318530875810e+00 4.048536535600e+00 -3.000000000000e+00
3.552396921680e+00 4.370927842320e+00 -3.000000000000e+00
2.500000000000e+00 2.500000000000e+00 -3.000000000000e+00
0.000000000000e+00 0.000000000000e+00 -5.000000000000e+00
5.000000000000e+00 0.000000000000e+00 -5.000000000000e+00
5.000000000000e+00 5.000000000000e+00 -5.000000000000e+00
0.000000000000e+00 5.000000000000e+00 -5.000000000000e+00
2.244234909000e+00 2.244234909000e+00 -5.000000000000e+00
[...]
POINT_DATA 1394
SCALARS TEMPERATURE1 double 1
LOOKUP_TABLE default
1.000000000000e+01
1.000000000000e+01
1.000000000000e+01
1.000000000000e+01
1.000000000000e+01
1.000000000000e+01
1.000000000000e+01
1.000000000000e+01
1.000000000000e+01
1.000000000000e+01
1.000000000000e+01
1.000000000000e+01
1.000000000000e+01
1.000000000000e+01
1.000000000000e+01
1.000000000000e+01
1.000000000000e+01
1.000000000000e+01
1.000000000000e+01
1.000000000000e+01
1.000000000000e+01
1.000000000000e+01
1.000000000000e+01
1.000000000000e+01
1.000000000000e+01
1.000000000000e+01
1.000000000000e+01
1.000000000000e+01
1.000000000000e+01
1.000000000000e+01
1.000000000000e+01
1.000000000000e+01
1.000000000000e+01
1.000000000000e+01
1.000000000000e+01
1.000000000000e+01
1.000000000000e+01
1.000000000000e+01
1.000000000000e+01
1.000000000000e+01
1.000000000000e+01
2.325974971873e+01
2.325983006083e+01
2.325916451095e+01
2.325981071444e+01
2.317036346920e+01
2.317550633168e+01
2.316505109034e+01
2.319834151402e+01
2.326503852754e+01
2.332002824177e+01
2.332949780158e+01
2.332890824306e+01
2.332067797088e+01
2.326305304116e+01
2.325379143131e+01
2.326664457042e+01
2.326376455228e+01
2.326548655110e+01
2.332009339680e+01
2.333341609361e+01
2.325453385974e+01
2.326667069073e+01
2.326332939673e+01
2.326692452328e+01
2.331924003596e+01
2.333636118703e+01
2.325474730854e+01
2.326687016671e+01
2.326408999894e+01
2.326390849108e+01
2.326698363097e+01
2.325416529821e+01
2.332952314023e+01
2.327730207784e+01
2.332832762028e+01
2.327719706205e+01
2.332661492418e+01
2.327836066735e+01
2.332747326243e+01
2.327662095971e+01
2.435779926716e+01
2.979536121441e+01
2.979530505409e+01
2.980380547548e+01
2.978757027335e+01
2.566933581833e+01
2.570721518056e+01
2.577397477804e+01
2.560343162351e+01
2.981934372096e+01
2.963298173481e+01
2.858271767128e+01
2.857088640671e+01
2.966169769948e+01
2.981954330916e+01
2.985103702601e+01
2.988472885712e+01
2.982864045914e+01
2.981829862397e+01
2.963719673723e+01
2.860193488200e+01
2.985229552587e+01
2.988337918009e+01
2.982940663966e+01
2.982455273299e+01
2.960978041708e+01
2.861244347801e+01
2.985177234695e+01
2.988434447728e+01
2.982891255259e+01
2.982931707920e+01
2.988424971351e+01
2.985038151883e+01
2.981577885049e+01
2.982575958432e+01
2.981568666282e+01
2.983285316998e+01
2.981633714207e+01
2.982121256436e+01
2.981919569355e+01
2.982600716046e+01
1.794693937085e+01
3.012435711856e+01
3.012386681441e+01
3.013155907917e+01
3.011783725128e+01
2.670593171382e+01
2.672830426965e+01
2.676380205317e+01
2.667253487199e+01
3.014894738133e+01
2.992899926460e+01
2.895441767395e+01
2.893973013800e+01
2.995481690158e+01
3.015111251431e+01
3.019319859718e+01
3.022031443922e+01
3.016305477934e+01
3.014754267628e+01
2.993286846203e+01
2.896879086352e+01
3.019350312116e+01
3.021930811945e+01
3.016403555010e+01
3.015174655967e+01
2.990839400966e+01
2.898311358479e+01
3.019302035325e+01
3.022028104701e+01
3.016252256175e+01
3.016316534720e+01
3.021973507326e+01
3.019253599219e+01
3.009246424301e+01
3.014830736088e+01
3.009306190948e+01
3.015571374716e+01
3.009476201484e+01
3.014332475790e+01
3.009689351888e+01
3.014939079268e+01
2.125434240595e+01
3.000386269243e+01
3.000353788137e+01
3.000845472798e+01
2.999893836501e+01
2.783524422187e+01
2.785254864100e+01
2.788139442551e+01
2.780764159323e+01
3.003680593254e+01
2.993891130979e+01
2.934946111842e+01
2.934175225672e+01
2.995467604972e+01
3.003798024261e+01
3.006269909725e+01
3.010100535094e+01
3.004757978930e+01
3.003588147129e+01
2.994142498923e+01
2.935955486982e+01
3.006319855445e+01
3.010043440138e+01
3.004777785227e+01
3.003818362766e+01
2.992675358930e+01
2.936720584814e+01
3.006269674240e+01
3.010103828561e+01
3.004737070040e+01
3.004769208837e+01
3.010069247559e+01
3.006226633743e+01
3.005189293937e+01
3.005298837954e+01
3.005195200144e+01
3.005850636765e+01
3.005305814115e+01
3.005025348077e+01
3.005424040614e+01
3.005303997757e+01
2.401806208549e+01
3.003297573120e+01
3.003277042396e+01
3.003565648604e+01
3.002929413291e+01
2.886915667481e+01
2.888087515504e+01
2.890094588769e+01
2.884995574043e+01
3.007062504639e+01
3.005817529207e+01
2.976182219544e+01
2.975885756452e+01
3.006623677639e+01
3.007125835248e+01
3.008364663271e+01
3.012778495032e+01
3.007879856709e+01
3.007004249180e+01
3.005963952582e+01
2.976819032861e+01
3.008422086463e+01
3.012754794293e+01
3.007846146447e+01
3.007074430004e+01
3.005249115259e+01
2.977143442363e+01
3.008371467796e+01
3.012785761066e+01
3.007879163467e+01
3.007889937051e+01
3.012765104908e+01
3.008337346041e+01
3.013078030498e+01
3.009734379577e+01
3.013052069289e+01
3.010136742986e+01
3.013125735071e+01
3.009622290976e+01
3.013167988524e+01
3.009672785670e+01
2.654556616410e+01
3.002736818777e+01
3.002722907940e+01
3.002842366892e+01
3.002482000237e+01
2.982493877546e+01
2.982873250604e+01
2.983439897831e+01
2.982048847657e+01
3.006802524661e+01
3.012024303640e+01
3.007729602240e+01
3.007746180347e+01
3.012155188420e+01
3.006850817781e+01
3.007183262331e+01
3.011867172286e+01
3.007426757458e+01
3.006769003734e+01
3.012080123916e+01
3.007981328002e+01
3.007235607781e+01
3.011874318422e+01
3.007353580679e+01
3.006675657346e+01
3.012028319785e+01
3.008055785090e+01
3.007186208525e+01
3.011879636188e+01
3.007435258719e+01
3.007431800024e+01
3.011866742480e+01
3.007168917583e+01
3.015604989423e+01
3.010165182375e+01
3.015562282671e+01
3.010439638135e+01
3.015615132817e+01
3.010178890942e+01
3.015586181244e+01
3.010060573433e+01
2.921516293002e+01
3.002697901844e+01
3.002676159844e+01
3.003003437282e+01
3.002310622125e+01
2.862399541500e+01
2.863749495052e+01
2.866064030866e+01
2.860174943102e+01
3.006225694134e+01
3.003136085584e+01
2.967073760829e+01
2.966689652691e+01
3.004113690131e+01
3.006289125994e+01
3.007740746386e+01
3.011909017161e+01
3.007065604818e+01
3.006162780700e+01
3.003304544773e+01
2.967803789120e+01
3.007798058100e+01
3.011876819664e+01
3.007044853939e+01
3.006280392628e+01
3.002418512794e+01
2.968201701663e+01
3.007749443346e+01
3.011914476970e+01
3.007062843037e+01
3.007077011801e+01
3.011892529168e+01
3.007711104474e+01
3.011223770830e+01
3.008594695009e+01
3.011202693888e+01
3.009019219745e+01
3.011277435453e+01
3.008450092185e+01
3.011340357825e+01
3.008547723788e+01
2.590450322277e+01
3.002414458168e+01
3.002400538725e+01
3.002515097124e+01
3.002191973175e+01
2.963600649631e+01
2.964214840633e+01
2.965282415532e+01
2.962600848413e+01
3.005810180870e+01
3.009412990865e+01
3.001284365326e+01
3.001294203177e+01
3.009644421918e+01
3.005835817988e+01
3.006236990931e+01
3.010219593065e+01
3.006386285677e+01
3.005779374673e+01
3.009475607598e+01
3.001595810551e+01
3.006283598169e+01
3.010221111040e+01
3.006329294920e+01
3.005746232901e+01
3.009308006055e+01
3.001634380663e+01
3.006242822356e+01
3.010232416199e+01
3.006391578329e+01
3.006389437513e+01
3.010219247269e+01
3.006224648987e+01
3.013149701783e+01
3.008597905616e+01
3.013111387385e+01
3.008852010062e+01
3.013153735862e+01
3.008593239489e+01
3.013145694759e+01
3.008513470326e+01
2.861192517202e+01
3.002167424243e+01
3.002155217613e+01
3.002189402574e+01
3.002023206054e+01
2.997514941747e+01
2.997850066978e+01
2.998458628155e+01
2.996947055535e+01
3.005194457835e+01
3.010296061970e+01
3.011287844815e+01
3.011417937105e+01
3.010278606315e+01
3.005210361932e+01
3.005309624087e+01
3.008832194718e+01
3.005665754551e+01
3.005174714700e+01
3.010320020397e+01
3.011436902701e+01
3.005344696419e+01
3.008845356504e+01
3.005604309379e+01
3.005098012910e+01
3.010385217049e+01
3.011355285094e+01
3.005310591395e+01
3.008848688744e+01
3.005668826683e+01
3.005663181560e+01
3.008836855208e+01
3.005303787269e+01
3.012345972742e+01
3.007811192666e+01
3.012308322317e+01
3.007992439108e+01
3.012340956371e+01
3.007846515719e+01
3.012311072921e+01
3.007727094151e+01
2.954967205206e+01
3.001961501147e+01
3.001949171747e+01
3.001957517789e+01
3.001854682773e+01
3.007904650279e+01
3.008096105671e+01
3.008449742599e+01
3.007581802644e+01
3.004621565722e+01
3.009454576877e+01
3.012717704303e+01
3.012856490214e+01
3.009370710073e+01
3.004640760536e+01
3.004706966539e+01
3.007766472184e+01
3.005047998806e+01
3.004604741220e+01
3.009465860966e+01
3.012798637004e+01
3.004732188516e+01
3.007782883545e+01
3.004992071577e+01
3.004518478704e+01
3.009588771444e+01
3.012705323134e+01
3.004703101673e+01
3.007784386852e+01
3.005046589148e+01
3.005041894922e+01
3.007771759658e+01
3.004703195560e+01
3.010851128147e+01
3.006924692235e+01
3.010819707078e+01
3.007073461704e+01
3.010851246994e+01
3.006963972072e+01
3.010816531084e+01
3.006851911213e+01
2.989963736316e+01
3.001800046809e+01
3.001787642467e+01
3.001789094473e+01
3.001711255728e+01
3.009531879096e+01
3.009668534709e+01
3.009924282631e+01
3.009300090292e+01
3.004184294727e+01
3.008468652159e+01
3.011837106462e+01
3.011962795222e+01
3.008378500477e+01
3.004206264421e+01
3.004294582828e+01
3.007014535992e+01
3.004585312889e+01
3.004168292781e+01
3.008476481578e+01
3.011893750178e+01
3.004313837375e+01
3.007031136987e+01
3.004535460304e+01
3.004085038830e+01
3.008600588665e+01
3.011808512593e+01
3.004288103550e+01
3.007032652619e+01
3.004580905087e+01
3.004577584205e+01
3.007019454588e+01
3.004291415321e+01
3.009625879076e+01
3.006229570337e+01
3.009599549885e+01
3.006362569808e+01
3.009631001127e+01
3.006264506937e+01
3.009597258840e+01
3.006166749306e+01
2.998968895422e+01
3.001683494036e+01
3.001671069709e+01
3.001677212802e+01
3.001599416442e+01
3.006074075427e+01
3.006211518475e+01
3.006465879830e+01
3.005840835018e+01
3.003879419986e+01
3.007533124327e+01
3.009780354447e+01
3.009881900996e+01
3.007471256033e+01
3.003903437515e+01
3.004041079359e+01
3.006535843152e+01
3.004268853629e+01
3.003862989598e+01
3.007543161067e+01
3.009840579442e+01
3.004057388660e+01
3.006550875237e+01
3.004224574203e+01
3.003789405799e+01
3.007636626847e+01
3.009774471126e+01
3.004033650312e+01
3.006553432675e+01
3.004262738609e+01
3.004260823533e+01
3.006539894070e+01
3.004037637892e+01
3.008714976207e+01
3.005732564529e+01
3.008692360714e+01
3.005861193290e+01
3.008724151842e+01
3.005759121333e+01
3.008694565519e+01
3.005677579083e+01
2.992530641514e+01
3.001607700051e+01
3.001595168860e+01
3.001619517334e+01
3.001514296460e+01
2.996058363725e+01
2.996264478344e+01
2.996636576417e+01
2.995707870101e+01
3.003688182242e+01
3.006517235601e+01
3.006034810428e+01
3.006096659511e+01
3.006528286072e+01
3.003713470398e+01
3.003941495782e+01
3.006310199327e+01
3.004082230294e+01
3.003669770187e+01
3.006536397839e+01
3.006132073791e+01
3.003957758165e+01
3.006321464995e+01
3.004043809545e+01
3.003615470052e+01
3.006557210668e+01
3.006099396789e+01
3.003934806733e+01
3.006326544986e+01
3.004075436157e+01
3.004075184450e+01
3.006312728306e+01
3.003936789814e+01
3.008036019241e+01
3.005396213866e+01
3.008016054323e+01
3.005533226180e+01
3.008048749232e+01
3.005408407183e+01
3.008027724356e+01
3.005347897365e+01
2.966574198381e+01
3.001566320387e+01
3.001552791944e+01
3.001625602042e+01
3.001439409986e+01
2.971015191135e+01
2.971408177620e+01
2.972097540123e+01
2.970354463648e+01
3.003556895284e+01
3.004666224255e+01
2.997416396507e+01
2.997384711738e+01
3.004858989199e+01
3.003586294422e+01
3.004042561492e+01
3.006329158141e+01
3.003990069262e+01
3.003532345440e+01
3.004710084952e+01
2.997616047964e+01
3.004061304021e+01
3.006331570481e+01
3.003962267541e+01
3.003521045168e+01
3.004553381972e+01
2.997666249975e+01
3.004038063501e+01
3.006343065896e+01
3.003982242950e+01
3.003985578669e+01
3.006328078621e+01
3.004034329804e+01
3.007166087332e+01
3.005075856349e+01
3.007150146334e+01
3.005245620887e+01
3.007186806540e+01
3.005054574709e+01
3.007185344720e+01
3.005038449958e+01
2.899806802049e+01
3.001549573284e+01
3.001530645364e+01
3.001745647033e+01
3.001327696407e+01
2.899361514700e+01
2.900234103301e+01
2.901717234349e+01
2.897929503747e+01
3.003287412188e+01
2.999031560557e+01
2.971762891788e+01
2.971434380291e+01
2.999756888969e+01
3.003340551132e+01
3.004548428092e+01
3.006566221524e+01
3.003869243507e+01
3.003242091952e+01
2.999148254715e+01
2.972245214421e+01
3.004569394023e+01
3.006544028724e+01
3.003874425658e+01
3.003348777010e+01
2.998472108343e+01
2.972564994813e+01
3.004545320201e+01
3.006574977526e+01
3.003853660397e+01
3.003869313834e+01
3.006553739550e+01
3.004529402926e+01
3.004396299309e+01
3.004207368268e+01
3.004396342612e+01
3.004478700200e+01
3.004451374888e+01
3.004082349840e+01
3.004504645464e+01
3.004207185698e+01
2.713824655489e+01
3.001548053913e+01
3.001527581978e+01
3.001777948786e+01
3.001303180890e+01
2.881650539969e+01
2.882634198444e+01
2.884294820749e+01
2.880049791508e+01
3.003215599522e+01
2.997580361286e+01
2.965285837762e+01
2.964879873639e+01
2.998439037995e+01
3.003275432583e+01
3.004677403095e+01
3.006616920432e+01
3.003836232232e+01
3.003164949905e+01
2.997715307100e+01
2.965837341341e+01
3.004698453370e+01
3.006588668284e+01
3.003849967220e+01
3.003300810363e+01
2.996909029616e+01
2.966228855856e+01
3.004674329141e+01
3.006624579814e+01
3.003818327593e+01
3.003837202931e+01
3.006601558133e+01
3.004655727076e+01
3.003656205213e+01
3.003975687803e+01
3.003660545429e+01
3.004272387908e+01
3.003720365464e+01
3.003824223098e+01
3.003787329623e+01
3.003985438934e+01
2.668794205299e+01
3.001540482840e+01
3.001517541195e+01
3.001822132750e+01
3.001261276844e+01
2.852639024699e+01
2.853826092246e+01
2.855836382183e+01
2.850689479004e+01
3.003080961463e+01
2.995255292665e+01
2.954951971896e+01
2.954431998614e+01
2.996326270483e+01
3.003149514308e+01
3.004856814309e+01
3.006659650971e+01
3.003763109476e+01
3.003022041384e+01
2.995418853006e+01
2.955616028567e+01
3.004877849413e+01
3.006621801937e+01
3.003790557316e+01
3.003206692775e+01
2.994404394840e+01
2.956107018002e+01
3.004853803881e+01
3.006665771048e+01
3.003741321258e+01
3.003765237883e+01
3.006639856498e+01
3.004831018699e+01
3.002457156453e+01
3.003578948886e+01
3.002468294587e+01
3.003915050827e+01
3.002535635451e+01
3.003385777432e+01
3.002624670131e+01
3.003604635053e+01
2.592223095109e+01
3.001556550605e+01
3.001529339691e+01
3.001919586246e+01
3.001222673635e+01
2.814246572771e+01
2.815609322092e+01
2.817856540041e+01
2.812093355566e+01
3.002930087266e+01
2.991702578452e+01
2.939803551658e+01
2.939079648044e+01
2.993078983275e+01
3.003023778536e+01
3.005221356458e+01
3.006805113897e+01
3.003710259222e+01
3.002857342585e+01
2.991908417451e+01
2.940610120528e+01
3.005240028341e+01
3.006753681495e+01
3.003758831198e+01
3.003100960482e+01
2.990597647157e+01
2.941300149405e+01
3.005215712812e+01
3.006808713281e+01
3.003681287177e+01
3.003713829634e+01
3.006777778733e+01
3.005188802471e+01
3.000509420550e+01
3.003018146963e+01
3.000533525617e+01
3.003414419151e+01
3.000615875978e+01
3.002760221619e+01
3.000734378082e+01
3.003069975796e+01
2.501331256571e+01
3.001483090164e+01
3.001454472243e+01
3.001903748332e+01
3.001110961020e+01
2.767419490489e+01
2.769306269051e+01
2.772559767705e+01
2.764220615507e+01
3.002665349670e+01
2.989089299366e+01
2.926367049733e+01
2.925566872755e+01
2.990758977045e+01
3.002740758723e+01
3.005223176633e+01
3.006701167015e+01
3.003500545575e+01
3.002586275558e+01
2.989332858077e+01
2.927376269161e+01
3.005248850698e+01
3.006635515303e+01
3.003564114459e+01
3.002922485906e+01
2.987728335247e+01
2.928095619631e+01
3.005225562244e+01
3.006702744915e+01
3.003471436526e+01
3.003507170333e+01
3.006670557929e+01
3.005187196438e+01
2.999501756394e+01
3.002495340048e+01
2.999526197759e+01
3.002938119302e+01
2.999606452535e+01
3.002192273733e+01
2.999761536484e+01
3.002560118893e+01
2.358111307282e+01
3.000879309021e+01
3.000868050304e+01
3.000999419097e+01
3.000747752685e+01
2.936695899918e+01
2.937252464901e+01
2.938265669738e+01
2.935661005508e+01
3.001844636240e+01
2.998995916780e+01
2.982037697227e+01
2.981844326613e+01
2.999445240248e+01
3.001877508388e+01
3.002629448346e+01
3.003747421630e+01
3.002191458004e+01
3.001816723690e+01
2.999067011074e+01
2.982330068393e+01
3.002640442514e+01
3.003733209082e+01
3.002197095016e+01
3.001885910151e+01
2.998646025347e+01
2.982505956610e+01
3.002626283613e+01
3.003752070332e+01
3.002181283641e+01
3.002191341436e+01
3.003739198907e+01
3.002617304796e+01
3.002243904425e+01
3.002314823354e+01
3.002246732317e+01
3.002476561650e+01
3.002282421513e+01
3.002235152722e+01
3.002315272405e+01
3.002317888167e+01
2.813505737600e+01
3.000639627920e+01
3.000632487895e+01
3.000702840179e+01
3.000558050785e+01
2.987174928487e+01
2.987084817321e+01
2.986570948059e+01
2.987943405535e+01
3.001458292975e+01
3.000732867973e+01
2.994656727669e+01
2.994469597810e+01
3.000896435390e+01
3.001496021818e+01
3.001863397207e+01
3.002738069248e+01
3.001660395389e+01
3.001443395673e+01
3.000765605578e+01
2.994749076182e+01
3.001870271222e+01
3.002735589842e+01
3.001655729115e+01
3.001434125982e+01
3.000626816116e+01
2.995007252021e+01
3.001861426057e+01
3.002742700578e+01
3.001655083013e+01
3.001660467085e+01
3.002734802904e+01
3.001858621408e+01
3.002178160046e+01
3.001950186672e+01
3.002174895118e+01
3.002040824893e+01
3.002190690980e+01
3.001919673815e+01
3.002198518294e+01
3.001945405624e+01
3.005518267660e+01
3.000412213056e+01
3.000409519995e+01
3.000436572027e+01
3.000369292374e+01
3.000940945562e+01
3.000869817919e+01
3.000762119473e+01
3.001020528539e+01
3.001008346771e+01
3.001349350898e+01
3.000689272885e+01
3.000661447736e+01
3.001363791256e+01
3.001035067623e+01
3.001167960134e+01
3.001786653277e+01
3.001116586024e+01
3.000999876463e+01
3.001357506781e+01
3.000693310812e+01
3.001170697745e+01
3.001788383551e+01
3.001108474175e+01
3.000969905390e+01
3.001357911117e+01
3.000739039185e+01
3.001162227805e+01
3.001787878436e+01
3.001114633034e+01
3.001116673592e+01
3.001784481683e+01
3.001163589448e+01
3.001811788649e+01
3.001426690372e+01
3.001812954029e+01
3.001470322064e+01
3.001831636884e+01
3.001420306272e+01
3.001821658537e+01
3.001416755248e+01
2.996995593621e+01
3.000226613263e+01
3.000225533386e+01
3.000231691392e+01
3.000208054904e+01
3.001511023734e+01
3.001526091639e+01
3.001562993705e+01
3.001467863199e+01
3.000582342312e+01
3.001120845190e+01
3.001556107595e+01
3.001571124305e+01
3.001108923336e+01
3.000590692133e+01
3.000617341243e+01
3.001005140030e+01
3.000639069134e+01
3.000579193456e+01
3.001121771502e+01
3.001557939660e+01
3.000620045079e+01
3.001007420640e+01
3.000632073653e+01
3.000562871314e+01
3.001139858932e+01
3.001545251150e+01
3.000615367674e+01
3.001006807046e+01
3.000638353279e+01
3.000638700837e+01
3.001005118020e+01
3.000615736557e+01
3.001287196136e+01
3.000869343913e+01
3.001285250426e+01
3.000889686651e+01
3.001293282133e+01
3.000872490253e+01
3.001286754481e+01
3.000860845913e+01
3.002262603202e+01
3.000093358902e+01
3.000093328895e+01
3.000096041676e+01
3.000083724962e+01
3.001083273967e+01
3.001088263902e+01
3.001095150514e+01
3.001080293984e+01
3.000266489856e+01
3.000618618483e+01
3.000961060613e+01
3.000969722843e+01
3.000610487308e+01
3.000268336905e+01
3.000260419535e+01
3.000457070986e+01
3.000285589556e+01
3.000265678076e+01
3.000618833951e+01
3.000963936694e+01
3.000262854920e+01
3.000457954911e+01
3.000281683423e+01
3.000258389714e+01
3.000629999611e+01
3.000959008145e+01
3.000260666215e+01
3.000457448617e+01
3.000286404340e+01
3.000286093541e+01
3.000457293783e+01
3.000259876954e+01
3.000689581949e+01
3.000418679362e+01
3.000687519071e+01
3.000427031049e+01
3.000689447546e+01
3.000421823452e+01
3.000686723686e+01
3.000413273739e+01
3.001046243313e+01
2.999986520969e+01
2.999986561766e+01
2.999986260684e+01
2.999987708338e+01
2.999864952378e+01
2.999864467740e+01
2.999864245777e+01
2.999864368985e+01
2.999963370357e+01
2.999919876844e+01
2.999880292835e+01
2.999879312699e+01
2.999920849735e+01
2.999963069275e+01
2.999963134528e+01
2.999937065878e+01
2.999960271475e+01
2.999963503472e+01
2.999919835781e+01
2.999879896733e+01
2.999962862997e+01
2.999936924308e+01
2.999960774387e+01
2.999964460066e+01