# vtk DataFile Version 3.0
Unstructured Grid from OpenGeoSys
ASCII
DATASET UNSTRUCTURED_GRID
FIELD TimesAndCycles 2
TIME 1 1 double
3.600000000000e+03
CYLCE 1 1 long
1
POINTS 1394 double
0.000000000000e+00 0.000000000000e+00 0.000000000000e+00
5.000000000000e+00 0.000000000000e+00 0.000000000000e+00
5.000000000000e+00 5.000000000000e+00 0.000000000000e+00
0.000000000000e+00 5.000000000000e+00 0.000000000000e+00
2.244234909000e+00 2.244234909000e+00 0.000000000000e+00
2.755765091000e+00 2.244234909000e+00 0.000000000000e+00
2.755765091000e+00 2.755765091000e+00 0.000000000000e+00
2.244234909000e+00 2.755765091000e+00 0.000000000000e+00
7.141316008320e-01 7.141316008320e-01 0.000000000000e+00
1.314642334730e+00 1.314642334730e+00 0.000000000000e+00
1.819609643610e+00 1.819609643610e+00 0.000000000000e+00
1.819609643610e+00 3.180390356390e+00 0.000000000000e+00
1.314642334740e+00 3.685357665260e+00 0.000000000000e+00
7.141316008360e-01 4.285868399160e+00 0.000000000000e+00
0.000000000000e+00 3.750000000000e+00 0.000000000000e+00
0.000000000000e+00 2.500000000000e+00 0.000000000000e+00
0.000000000000e+00 1.250000000000e+00 0.000000000000e+00
4.285868399170e+00 7.141316008320e-01 0.000000000000e+00
3.685357665270e+00 1.314642334730e+00 0.000000000000e+00
3.180390356390e+00 1.819609643610e+00 0.000000000000e+00
1.250000000000e+00 0.000000000000e+00 0.000000000000e+00
2.500000000000e+00 0.000000000000e+00 0.000000000000e+00
3.750000000000e+00 0.000000000000e+00 0.000000000000e+00
4.285868399170e+00 4.285868399170e+00 0.000000000000e+00
3.685357665270e+00 3.685357665270e+00 0.000000000000e+00
3.180390356390e+00 3.180390356390e+00 0.000000000000e+00
5.000000000000e+00 1.250000000000e+00 0.000000000000e+00
5.000000000000e+00 2.500000000000e+00 0.000000000000e+00
5.000000000000e+00 3.750000000000e+00 0.000000000000e+00
3.750000000000e+00 5.000000000000e+00 0.000000000000e+00
2.500000000000e+00 5.000000000000e+00 0.000000000000e+00
1.250000000000e+00 5.000000000000e+00 0.000000000000e+00
9.560744151940e-01 2.677827143250e+00 0.000000000000e+00
6.659597640160e-01 1.438876720610e+00 0.000000000000e+00
2.309219871940e+00 9.522638293400e-01 0.000000000000e+00
3.458157207860e+00 6.354750772000e-01 0.000000000000e+00
4.043925584810e+00 2.322172856750e+00 0.000000000000e+00
4.334040235980e+00 3.561123279390e+00 0.000000000000e+00
2.318530875810e+00 4.048536535600e+00 0.000000000000e+00
3.552396921680e+00 4.370927842320e+00 0.000000000000e+00
2.500000000000e+00 2.500000000000e+00 0.000000000000e+00
0.000000000000e+00 0.000000000000e+00 -5.000000000000e-01
5.000000000000e+00 0.000000000000e+00 -5.000000000000e-01
5.000000000000e+00 5.000000000000e+00 -5.000000000000e-01
0.000000000000e+00 5.000000000000e+00 -5.000000000000e-01
2.244234909000e+00 2.244234909000e+00 -5.000000000000e-01
2.755765091000e+00 2.244234909000e+00 -5.000000000000e-01
2.755765091000e+00 2.755765091000e+00 -5.000000000000e-01
2.244234909000e+00 2.755765091000e+00 -5.000000000000e-01
7.141316008320e-01 7.141316008320e-01 -5.000000000000e-01
1.314642334730e+00 1.314642334730e+00 -5.000000000000e-01
1.819609643610e+00 1.819609643610e+00 -5.000000000000e-01
1.819609643610e+00 3.180390356390e+00 -5.000000000000e-01
1.314642334740e+00 3.685357665260e+00 -5.000000000000e-01
7.141316008360e-01 4.285868399160e+00 -5.000000000000e-01
0.000000000000e+00 3.750000000000e+00 -5.000000000000e-01
0.000000000000e+00 2.500000000000e+00 -5.000000000000e-01
0.000000000000e+00 1.250000000000e+00 -5.000000000000e-01
4.285868399170e+00 7.141316008320e-01 -5.000000000000e-01
3.685357665270e+00 1.314642334730e+00 -5.000000000000e-01
3.180390356390e+00 1.819609643610e+00 -5.000000000000e-01
1.250000000000e+00 0.000000000000e+00 -5.000000000000e-01
2.500000000000e+00 0.000000000000e+00 -5.000000000000e-01
3.750000000000e+00 0.000000000000e+00 -5.000000000000e-01
4.285868399170e+00 4.285868399170e+00 -5.000000000000e-01
3.685357665270e+00 3.685357665270e+00 -5.000000000000e-01
3.180390356390e+00 3.180390356390e+00 -5.000000000000e-01
5.000000000000e+00 1.250000000000e+00 -5.000000000000e-01
5.000000000000e+00 2.500000000000e+00 -5.000000000000e-01
5.000000000000e+00 3.750000000000e+00 -5.000000000000e-01
3.750000000000e+00 5.000000000000e+00 -5.000000000000e-01
2.500000000000e+00 5.000000000000e+00 -5.000000000000e-01
1.250000000000e+00 5.000000000000e+00 -5.000000000000e-01
9.560744151940e-01 2.677827143250e+00 -5.000000000000e-01
6.659597640160e-01 1.438876720610e+00 -5.000000000000e-01
2.309219871940e+00 9.522638293400e-01 -5.000000000000e-01
3.458157207860e+00 6.354750772000e-01 -5.000000000000e-01
4.043925584810e+00 2.322172856750e+00 -5.000000000000e-01
4.334040235980e+00 3.561123279390e+00 -5.000000000000e-01
2.318530875810e+00 4.048536535600e+00 -5.000000000000e-01
3.552396921680e+00 4.370927842320e+00 -5.000000000000e-01
2.500000000000e+00 2.500000000000e+00 -5.000000000000e-01
0.000000000000e+00 0.000000000000e+00 -1.000000000000e+00
5.000000000000e+00 0.000000000000e+00 -1.000000000000e+00
5.000000000000e+00 5.000000000000e+00 -1.000000000000e+00
0.000000000000e+00 5.000000000000e+00 -1.000000000000e+00
2.244234909000e+00 2.244234909000e+00 -1.000000000000e+00
2.755765091000e+00 2.244234909000e+00 -1.000000000000e+00
2.755765091000e+00 2.755765091000e+00 -1.000000000000e+00
2.244234909000e+00 2.755765091000e+00 -1.000000000000e+00
7.141316008320e-01 7.141316008320e-01 -1.000000000000e+00
1.314642334730e+00 1.314642334730e+00 -1.000000000000e+00
1.819609643610e+00 1.819609643610e+00 -1.000000000000e+00
1.819609643610e+00 3.180390356390e+00 -1.000000000000e+00
1.314642334740e+00 3.685357665260e+00 -1.000000000000e+00
7.141316008360e-01 4.285868399160e+00 -1.000000000000e+00
0.000000000000e+00 3.750000000000e+00 -1.000000000000e+00
0.000000000000e+00 2.500000000000e+00 -1.000000000000e+00
0.000000000000e+00 1.250000000000e+00 -1.000000000000e+00
4.285868399170e+00 7.141316008320e-01 -1.000000000000e+00
3.685357665270e+00 1.314642334730e+00 -1.000000000000e+00
3.180390356390e+00 1.819609643610e+00 -1.000000000000e+00
1.250000000000e+00 0.000000000000e+00 -1.000000000000e+00
2.500000000000e+00 0.000000000000e+00 -1.000000000000e+00
3.750000000000e+00 0.000000000000e+00 -1.000000000000e+00
4.285868399170e+00 4.285868399170e+00 -1.000000000000e+00
3.685357665270e+00 3.685357665270e+00 -1.000000000000e+00
3.180390356390e+00 3.180390356390e+00 -1.000000000000e+00
5.000000000000e+00 1.250000000000e+00 -1.000000000000e+00
5.000000000000e+00 2.500000000000e+00 -1.000000000000e+00
5.000000000000e+00 3.750000000000e+00 -1.000000000000e+00
3.750000000000e+00 5.000000000000e+00 -1.000000000000e+00
2.500000000000e+00 5.000000000000e+00 -1.000000000000e+00
1.250000000000e+00 5.000000000000e+00 -1.000000000000e+00
9.560744151940e-01 2.677827143250e+00 -1.000000000000e+00
6.659597640160e-01 1.438876720610e+00 -1.000000000000e+00
2.309219871940e+00 9.522638293400e-01 -1.000000000000e+00
3.458157207860e+00 6.354750772000e-01 -1.000000000000e+00
4.043925584810e+00 2.322172856750e+00 -1.000000000000e+00
4.334040235980e+00 3.561123279390e+00 -1.000000000000e+00
2.318530875810e+00 4.048536535600e+00 -1.000000000000e+00
3.552396921680e+00 4.370927842320e+00 -1.000000000000e+00
2.500000000000e+00 2.500000000000e+00 -1.000000000000e+00
0.000000000000e+00 0.000000000000e+00 -3.000000000000e+00
5.000000000000e+00 0.000000000000e+00 -3.000000000000e+00
5.000000000000e+00 5.000000000000e+00 -3.000000000000e+00
0.000000000000e+00 5.000000000000e+00 -3.000000000000e+00
2.244234909000e+00 2.244234909000e+00 -3.000000000000e+00
2.755765091000e+00 2.244234909000e+00 -3.000000000000e+00
2.755765091000e+00 2.755765091000e+00 -3.000000000000e+00
2.244234909000e+00 2.755765091000e+00 -3.000000000000e+00
7.141316008320e-01 7.141316008320e-01 -3.000000000000e+00
1.314642334730e+00 1.314642334730e+00 -3.000000000000e+00
1.819609643610e+00 1.819609643610e+00 -3.000000000000e+00
1.819609643610e+00 3.180390356390e+00 -3.000000000000e+00
1.314642334740e+00 3.685357665260e+00 -3.000000000000e+00
7.141316008360e-01 4.285868399160e+00 -3.000000000000e+00
0.000000000000e+00 3.750000000000e+00 -3.000000000000e+00
0.000000000000e+00 2.500000000000e+00 -3.000000000000e+00
0.000000000000e+00 1.250000000000e+00 -3.000000000000e+00
4.285868399170e+00 7.141316008320e-01 -3.000000000000e+00
3.685357665270e+00 1.314642334730e+00 -3.000000000000e+00
3.180390356390e+00 1.819609643610e+00 -3.000000000000e+00
1.250000000000e+00 0.000000000000e+00 -3.000000000000e+00
2.500000000000e+00 0.000000000000e+00 -3.000000000000e+00
3.750000000000e+00 0.000000000000e+00 -3.000000000000e+00
4.285868399170e+00 4.285868399170e+00 -3.000000000000e+00
3.685357665270e+00 3.685357665270e+00 -3.000000000000e+00
3.180390356390e+00 3.180390356390e+00 -3.000000000000e+00
5.000000000000e+00 1.250000000000e+00 -3.000000000000e+00
5.000000000000e+00 2.500000000000e+00 -3.000000000000e+00
5.000000000000e+00 3.750000000000e+00 -3.000000000000e+00
3.750000000000e+00 5.000000000000e+00 -3.000000000000e+00
2.500000000000e+00 5.000000000000e+00 -3.000000000000e+00
1.250000000000e+00 5.000000000000e+00 -3.000000000000e+00
9.560744151940e-01 2.677827143250e+00 -3.000000000000e+00
6.659597640160e-01 1.438876720610e+00 -3.000000000000e+00
2.309219871940e+00 9.522638293400e-01 -3.000000000000e+00
3.458157207860e+00 6.354750772000e-01 -3.000000000000e+00
4.043925584810e+00 2.322172856750e+00 -3.000000000000e+00
4.334040235980e+00 3.561123279390e+00 -3.000000000000e+00
2.318530875810e+00 4.048536535600e+00 -3.000000000000e+00
3.552396921680e+00 4.370927842320e+00 -3.000000000000e+00
2.500000000000e+00 2.500000000000e+00 -3.000000000000e+00
0.000000000000e+00 0.000000000000e+00 -5.000000000000e+00
5.000000000000e+00 0.000000000000e+00 -5.000000000000e+00
5.000000000000e+00 5.000000000000e+00 -5.000000000000e+00
0.000000000000e+00 5.000000000000e+00 -5.000000000000e+00
2.244234909000e+00 2.244234909000e+00 -5.000000000000e+00
[...]
POINT_DATA 1394
SCALARS TEMPERATURE1 double 1
LOOKUP_TABLE default
1.000000000000e+01
1.000000000000e+01
1.000000000000e+01
1.000000000000e+01
1.000000000000e+01
1.000000000000e+01
1.000000000000e+01
1.000000000000e+01
1.000000000000e+01
1.000000000000e+01
1.000000000000e+01
1.000000000000e+01
1.000000000000e+01
1.000000000000e+01
1.000000000000e+01
1.000000000000e+01
1.000000000000e+01
1.000000000000e+01
1.000000000000e+01
1.000000000000e+01
1.000000000000e+01
1.000000000000e+01
1.000000000000e+01
1.000000000000e+01
1.000000000000e+01
1.000000000000e+01
1.000000000000e+01
1.000000000000e+01
1.000000000000e+01
1.000000000000e+01
1.000000000000e+01
1.000000000000e+01
1.000000000000e+01
1.000000000000e+01
1.000000000000e+01
1.000000000000e+01
1.000000000000e+01
1.000000000000e+01
1.000000000000e+01
1.000000000000e+01
1.000000000000e+01
1.866859292011e+01
1.866880199701e+01
1.867295171327e+01
1.866774698758e+01
1.790571646277e+01
1.786074755418e+01
1.779601061932e+01
1.795358714391e+01
1.860740554276e+01
1.837817111366e+01
1.785215178191e+01
1.783340038471e+01
1.839171105942e+01
1.860832581750e+01
1.862193755287e+01
1.855159065807e+01
1.859872059697e+01
1.860729775413e+01
1.838040887367e+01
1.785616851929e+01
1.862152937126e+01
1.855034652996e+01
1.860090772696e+01
1.861087941179e+01
1.836721812603e+01
1.788250393428e+01
1.862234528309e+01
1.855077546638e+01
1.859947591919e+01
1.859963663033e+01
1.855124883496e+01
1.862189086121e+01
1.841691489336e+01
1.854564898330e+01
1.841778560890e+01
1.854451710882e+01
1.841646855327e+01
1.854171361123e+01
1.841864183658e+01
1.854754928474e+01
1.867216956725e+01
2.687499803906e+01
2.687578678760e+01
2.687722365186e+01
2.688080502254e+01
2.744452425761e+01
2.748397248403e+01
2.761267528313e+01
2.726423764650e+01
2.673525690225e+01
2.631556625842e+01
2.661549613463e+01
2.663134890767e+01
2.630384337862e+01
2.674588411157e+01
2.678760047478e+01
2.657856747647e+01
2.672574261674e+01
2.673385323980e+01
2.631106253757e+01
2.658099124937e+01
2.678221781071e+01
2.657902603229e+01
2.672912574638e+01
2.672663216066e+01
2.632090684257e+01
2.653437681345e+01
2.678190717957e+01
2.657710799009e+01
2.672204206808e+01
2.672449433547e+01
2.657660565813e+01
2.678550391553e+01
2.611783942547e+01
2.657118314591e+01
2.612583597738e+01
2.656342550822e+01
2.613646885313e+01
2.656681488645e+01
2.613146809001e+01
2.657907035241e+01
2.488253426045e+01
3.141416798299e+01
3.141402812152e+01
3.140573569112e+01
3.143253022222e+01
3.050868452051e+01
3.057680308916e+01
3.073280295529e+01
3.033137569904e+01
3.118382715000e+01
3.064670147969e+01
3.077488880096e+01
3.079603557658e+01
3.063852985557e+01
3.118818804744e+01
3.124047163902e+01
3.093978611186e+01
3.118444453628e+01
3.118365339092e+01
3.064028210306e+01
3.075167606758e+01
3.123352992256e+01
3.094164756804e+01
3.118917985444e+01
3.118633870175e+01
3.064120932515e+01
3.069816632872e+01
3.123570574139e+01
3.094175356890e+01
3.117790615388e+01
3.118101334771e+01
3.093946371298e+01
3.124014593711e+01
3.041382624233e+01
3.094936477570e+01
3.042015884542e+01
3.093780611613e+01
3.042632782349e+01
3.094542112519e+01
3.042527183927e+01
3.096061494246e+01
2.565592221745e+01
3.479530903793e+01
3.479557140110e+01
3.479151950264e+01
3.481199786352e+01
3.273678618226e+01
3.280426291111e+01
3.296528775133e+01
3.254501765100e+01
3.451788154867e+01
3.378906287842e+01
3.351270585644e+01
3.352472525009e+01
3.379162933088e+01
3.452361257212e+01
3.458817039990e+01
3.423016845695e+01
3.451050697066e+01
3.451739446150e+01
3.378420244614e+01
3.348982121821e+01
3.458088870931e+01
3.423101632548e+01
3.451691757883e+01
3.452207204786e+01
3.377475666358e+01
3.344361975428e+01
3.458323945482e+01
3.423102948702e+01
3.450429507505e+01
3.450766979531e+01
3.422915569853e+01
3.458733547824e+01
3.358264886479e+01
3.423289288615e+01
3.359049941240e+01
3.422061863565e+01
3.359744345963e+01
3.422582992718e+01
3.359725060463e+01
3.424588798301e+01
2.652281911323e+01
3.707228782468e+01
3.707257425279e+01
3.706913231556e+01
3.708966884728e+01
3.430480218876e+01
3.437627880673e+01
3.454332041997e+01
3.410764031019e+01
3.676710401386e+01
3.595214131104e+01
3.547883179914e+01
3.548769643425e+01
3.595990290969e+01
3.677247162344e+01
3.684259903569e+01
3.645381582232e+01
3.675775089873e+01
3.676664673537e+01
3.594776383201e+01
3.545812837619e+01
3.683507892183e+01
3.645438069283e+01
3.676494187109e+01
3.677350430148e+01
3.593268699774e+01
3.541439586078e+01
3.683777863878e+01
3.645463246309e+01
3.675140149581e+01
3.675491618642e+01
3.645274037896e+01
3.684179272025e+01
3.575663758002e+01
3.645580092490e+01
3.576478608553e+01
3.644294072719e+01
3.577138526676e+01
3.644759742668e+01
3.577210438895e+01
3.646979215739e+01
2.714239955006e+01
3.836056356286e+01
3.836098770610e+01
3.835842018564e+01
3.837776243459e+01
3.521612532152e+01
3.528897374223e+01
3.545926646639e+01
3.501424516898e+01
3.803962985310e+01
3.717456692759e+01
3.658804401816e+01
3.659477523532e+01
3.718539318775e+01
3.804495716844e+01
3.811721841378e+01
3.771059420288e+01
3.802772422296e+01
3.803918180807e+01
3.717057536359e+01
3.656808241404e+01
3.810967317399e+01
3.771090524899e+01
3.803539035512e+01
3.804700653510e+01
3.715235050020e+01
3.652599565982e+01
3.811250319723e+01
3.771117484912e+01
3.802147171148e+01
3.802504188357e+01
3.770938916896e+01
3.811633584649e+01
3.698565259920e+01
3.771325630944e+01
3.699408974045e+01
3.769999126107e+01
3.700061361269e+01
3.770429882327e+01
3.700173701125e+01
3.772771423606e+01
2.754619266037e+01
3.896877825165e+01
3.896923475709e+01
3.896710650572e+01
3.898659441516e+01
3.549113242399e+01
3.556128237465e+01
3.572556399699e+01
3.529552942183e+01
3.862501140431e+01
3.768280892965e+01
3.696372336840e+01
3.696696192049e+01
3.769691143926e+01
3.863053350655e+01
3.870935208806e+01
3.827519940594e+01
3.861217927528e+01
3.862454713196e+01
3.767910293076e+01
3.694417665684e+01
3.870147913207e+01
3.827540327549e+01
3.862054924954e+01
3.863349143237e+01
3.765720408279e+01
3.690552418564e+01
3.870462350873e+01
3.827581564069e+01
3.860565599383e+01
3.860942944804e+01
3.827391141573e+01
3.870846747552e+01
3.749618000297e+01
3.827510244917e+01
3.750503442382e+01
3.826132101251e+01
3.751146475530e+01
3.826507086676e+01
3.751312717559e+01
3.829051812795e+01
2.774212789853e+01
3.997221442941e+01
3.997271344249e+01
3.997217713551e+01
3.998844713226e+01
3.627665186645e+01
3.634323911796e+01
3.650137662899e+01
3.608558211575e+01
3.963427902908e+01
3.868421417489e+01
3.786613994487e+01
3.786625377926e+01
3.870125603576e+01
3.963999568021e+01
3.971852194684e+01
3.929245680912e+01
3.961979167484e+01
3.963369299371e+01
3.868127437164e+01
3.784798765735e+01
3.971094711702e+01
3.929226264737e+01
3.962819054219e+01
3.964282325117e+01
3.865712313565e+01
3.781386864274e+01
3.971392676416e+01
3.929264781951e+01
3.961377778082e+01
3.961740146352e+01
3.929101856646e+01
3.971752037023e+01
3.851941085710e+01
3.928920668974e+01
3.852823542683e+01
3.927611309634e+01
3.853461833447e+01
3.927874467623e+01
3.853647675907e+01
3.930429858658e+01
2.840411427447e+01
4.018251716546e+01
4.018294084934e+01
4.018319070186e+01
4.019752203719e+01
3.652592757515e+01
3.658822199969e+01
3.673818257473e+01
3.634277192465e+01
3.986052975592e+01
3.893825151297e+01
3.810243843911e+01
3.810110393131e+01
3.895602337608e+01
3.986635551409e+01
3.994303855092e+01
3.953678409480e+01
3.984638123045e+01
3.985983611004e+01
3.893576738091e+01
3.808533820115e+01
3.993575098226e+01
3.953639245372e+01
3.985447644916e+01
3.986862285504e+01
3.891156211858e+01
3.805446144601e+01
3.993851189195e+01
3.953677408668e+01
3.984077602723e+01
3.984421488630e+01
3.953532364431e+01
3.994200884122e+01
3.878985547816e+01
3.953035571455e+01
3.879839762425e+01
3.951816979812e+01
3.880470045828e+01
3.952003373822e+01
3.880653094497e+01
3.954482569208e+01
2.886607688569e+01
4.007516584866e+01
4.007558206442e+01
4.007638644327e+01
4.008909938282e+01
3.652860793719e+01
3.658671368093e+01
3.672861963375e+01
3.635347043988e+01
3.976708102080e+01
3.887478716613e+01
3.804552794904e+01
3.804325908683e+01
3.889260692048e+01
3.977293100528e+01
3.984709418629e+01
3.945800614268e+01
3.975297126301e+01
3.976634419423e+01
3.887260656969e+01
3.802908511556e+01
3.984011502582e+01
3.945750047435e+01
3.976078000613e+01
3.977468576950e+01
3.884885659391e+01
3.800070187381e+01
3.984269982780e+01
3.945783787715e+01
3.974771985043e+01
3.975100113093e+01
3.945653343221e+01
3.984604265888e+01
3.873726950934e+01
3.945028322042e+01
3.874555176788e+01
3.943875774957e+01
3.875172959221e+01
3.944017809143e+01
3.875347688604e+01
3.946415378928e+01
2.917874621331e+01
3.989306131972e+01
3.989347730100e+01
3.989467663112e+01
3.990612538425e+01
3.646354103338e+01
3.651811743614e+01
3.665320897536e+01
3.629527081335e+01
3.959696267088e+01
3.873235856110e+01
3.791678792896e+01
3.791390783158e+01
3.874999605312e+01
3.960281394344e+01
3.967462886483e+01
3.930028652208e+01
3.958292600856e+01
3.959620041503e+01
3.873039525724e+01
3.790082172884e+01
3.966791555495e+01
3.929970711462e+01
3.959047695522e+01
3.960412124356e+01
3.870722688872e+01
3.787434529293e+01
3.967035414506e+01
3.930000074154e+01
3.957796258201e+01
3.958111240610e+01
3.929881119834e+01
3.967356359261e+01
3.860290330153e+01
3.929179517241e+01
3.861095610548e+01
3.928079983570e+01
3.861702002702e+01
3.928191624526e+01
3.861867554104e+01
3.930514377327e+01
2.940472462618e+01
3.969278996265e+01
3.969321736511e+01
3.969469023316e+01
3.970518673410e+01
3.637030200929e+01
3.642205129917e+01
3.655167804510e+01
3.620757513500e+01
3.940596824485e+01
3.856410789380e+01
3.776399194198e+01
3.776071677226e+01
3.858147475476e+01
3.941180337084e+01
3.948159959406e+01
3.911865477087e+01
3.939194028364e+01
3.940519721566e+01
3.856229168698e+01
3.774834319556e+01
3.947510310652e+01
3.911803086175e+01
3.939928616254e+01
3.941276483396e+01
3.853968461878e+01
3.772326681520e+01
3.947743220091e+01
3.911828297583e+01
3.938719924016e+01
3.939024814341e+01
3.911718035715e+01
3.948052519472e+01
3.844014239744e+01
3.910989547481e+01
3.844801262082e+01
3.909928098550e+01
3.845397479199e+01
3.910021368897e+01
3.845554816015e+01
3.912282785352e+01
2.956279311142e+01
3.945743593893e+01
3.945788698980e+01
3.945952103839e+01
3.946935002007e+01
3.623660183452e+01
3.628614106147e+01
3.641150455900e+01
3.607822794960e+01
3.917740275233e+01
3.835378886030e+01
3.757164976629e+01
3.756818745457e+01
3.837077803352e+01
3.918321221332e+01
3.925129248459e+01
3.889663595192e+01
3.916332059172e+01
3.917663823571e+01
3.835205104203e+01
3.755614454461e+01
3.924496696443e+01
3.889599639322e+01
3.917050968162e+01
3.918390189458e+01
3.833001147212e+01
3.753198557837e+01
3.924721968146e+01
3.889620677615e+01
3.915874005470e+01
3.916171725831e+01
3.889516477989e+01
3.925021203763e+01
3.823278016192e+01
3.888807889816e+01
3.824051412691e+01
3.887770437926e+01
3.824639057776e+01
3.887856849133e+01
3.824788510841e+01
3.890069297722e+01
2.965048789438e+01
3.908451135823e+01
3.908501364603e+01
3.908668953775e+01
3.909609636244e+01
3.598385679500e+01
3.603151139165e+01
3.615326393837e+01
3.582920782948e+01
3.880902356447e+01
3.800064081440e+01
3.724442297733e+01
3.724101105524e+01
3.801700017959e+01
3.881480165060e+01
3.888128042591e+01
3.853200713011e+01
3.879476703954e+01
3.880828918458e+01
3.799889625643e+01
3.722879641939e+01
3.887509619816e+01
3.853139302182e+01
3.880184026022e+01
3.881523555828e+01
3.797756746147e+01
3.720506842688e+01
3.887730451315e+01
3.853154794277e+01
3.879028849669e+01
3.879322413001e+01
3.853053975496e+01
3.888019399990e+01
3.787935559670e+01
3.852435483647e+01
3.788700019827e+01
3.851406244355e+01
3.789280344295e+01
3.851500749820e+01
3.789420007333e+01
3.853672914295e+01
2.963667977061e+01
3.825306287752e+01
3.825367229319e+01
3.825513455215e+01
3.826444693332e+01
3.540512246816e+01
3.544989286863e+01
3.556626926193e+01
3.525602953833e+01
3.798154099334e+01
3.719326283642e+01
3.649778805623e+01
3.649489163783e+01
3.720799974608e+01
3.798730018642e+01
3.805162156051e+01
3.770645130087e+01
3.796703918293e+01
3.798088502249e+01
3.719134171095e+01
3.648137773774e+01
3.804558490913e+01
3.770596668496e+01
3.797398758412e+01
3.798722502424e+01
3.717157802355e+01
3.645751291247e+01
3.804777463459e+01
3.770601171444e+01
3.796259657217e+01
3.796551761014e+01
3.770499299924e+01
3.805053049292e+01
3.706531581294e+01
3.770108315524e+01
3.707290672136e+01
3.769067614922e+01
3.707864285845e+01
3.769199847146e+01
3.707981672017e+01
3.771321304681e+01
2.952956988310e+01
3.788545727078e+01
3.788609511064e+01
3.788747103875e+01
3.789675630283e+01
3.512586930898e+01
3.516997832917e+01
3.528508971482e+01
3.497815790633e+01
3.761618525590e+01
3.683706130840e+01
3.616529741322e+01
3.616271394149e+01
3.685117199043e+01
3.762193868595e+01
3.768543033975e+01
3.734272321179e+01
3.760171340461e+01
3.761555121879e+01
3.683507124307e+01
3.614863212354e+01
3.767944902202e+01
3.734228649275e+01
3.760859349228e+01
3.762165554200e+01
3.681592956558e+01
3.612455017781e+01
3.768161896502e+01
3.734229372140e+01
3.759728400460e+01
3.760019533447e+01
3.734127126167e+01
3.768433747525e+01
3.670704515334e+01
3.733801252949e+01
3.671460452186e+01
3.732760494267e+01
3.672033318607e+01
3.732905069735e+01
3.672141447768e+01
3.735003321581e+01
2.939080618642e+01
3.733151447531e+01
3.733217927027e+01
3.733338189146e+01
3.734266901799e+01
3.474128288326e+01
3.478436641803e+01
3.489759229286e+01
3.459561126251e+01
3.706747586373e+01
3.630757644550e+01
3.568286159479e+01
3.568098357682e+01
3.632044969036e+01
3.707324711132e+01
3.713518493660e+01
3.679828107740e+01
3.705322858397e+01
3.706686586868e+01
3.630545359665e+01
3.566570670695e+01
3.712928797552e+01
3.679792691940e+01
3.705995039132e+01
3.707250112890e+01
3.628758492376e+01
3.564108682932e+01
3.713140219236e+01
3.679787069280e+01
3.704882740287e+01
3.705171291132e+01
3.679684646526e+01
3.713409053366e+01
3.617401526414e+01
3.679449814843e+01
3.618150269765e+01
3.678413862926e+01
3.618725012578e+01
3.678580012390e+01
3.618814084582e+01
3.680629761761e+01
2.926208453912e+01
3.652277969348e+01
3.652340549510e+01
3.652425612117e+01
3.653386600794e+01
3.417788713382e+01
3.421856939504e+01
3.432746577336e+01
3.403668696822e+01
3.626722567514e+01
3.553509586907e+01
3.497291310124e+01
3.497180502148e+01
3.554629368738e+01
3.627303115083e+01
3.633321576789e+01
3.600597742720e+01
3.625379141670e+01
3.626661962203e+01
3.553283091685e+01
3.495520398881e+01
3.632738339120e+01
3.600573205415e+01
3.626027474177e+01
3.627163438935e+01
3.551673626528e+01
3.493034316571e+01
3.632942043753e+01
3.600563024909e+01
3.624941701226e+01
3.625224316077e+01
3.600458519695e+01
3.633214715418e+01
3.539804495733e+01
3.600253112353e+01
3.540539936046e+01
3.599234770097e+01
3.541115656522e+01
3.599420944413e+01
3.541180026724e+01
3.601401456216e+01
2.907894321358e+01
3.549102253469e+01
3.549139225140e+01
3.549163115756e+01
3.550156078658e+01
3.355707544113e+01
3.359928935435e+01
3.371087505141e+01
3.341396010570e+01
3.526628153105e+01
3.460547272119e+01
3.417863517145e+01
3.418066141502e+01
3.461298420911e+01
3.527263198421e+01
3.533184489660e+01
3.503876147494e+01
3.525749884629e+01
3.526547803230e+01
3.460285575520e+01
3.415974164202e+01
3.532607434528e+01
3.503880437881e+01
3.526321716594e+01
3.526866208138e+01
3.459089047764e+01
3.413166957884e+01
3.532770808959e+01
3.503861425082e+01
3.525299464115e+01
3.525573001466e+01
3.503742505535e+01
3.533074592940e+01
3.446812039729e+01
3.502863830161e+01
3.447523793337e+01
3.501975303890e+01
3.448165090349e+01
3.502123647142e+01
3.448147034494e+01
3.503933491786e+01
2.886652095334e+01
3.430302150984e+01
3.430334494825e+01
3.430377031501e+01
3.430832391078e+01
3.331290639171e+01
3.334625293772e+01
3.344248994143e+01
3.318568560486e+01
3.418618902326e+01
3.383909791984e+01
3.370449133949e+01
3.371144350701e+01
3.384031524350e+01
3.419066613858e+01
3.422264712737e+01
3.406564882920e+01
3.418097209689e+01
3.418551967805e+01
3.383717504348e+01
3.369077449313e+01
3.421926113532e+01
3.406567856254e+01
3.418391191271e+01
3.418576649769e+01
3.383378426187e+01
3.366526809492e+01
3.421973825251e+01
3.406520783492e+01
3.417848056363e+01
3.418004385515e+01
3.406468446604e+01
3.422169384732e+01
3.374954853822e+01
3.405970727751e+01
3.375410770443e+01
3.405473281185e+01
3.375915093677e+01
3.405580561905e+01
3.375799864540e+01
3.406546120027e+01
2.913104189569e+01
3.397920257686e+01
3.397933521055e+01
3.397970210238e+01
3.398298533383e+01
3.347958310253e+01
3.348052378187e+01
3.347716247950e+01
3.348550869268e+01
3.389270384559e+01
3.365143919756e+01
3.344601256176e+01
3.344037047263e+01
3.365602961786e+01
3.389432517122e+01
3.391267686058e+01
3.380372894670e+01
3.388747600095e+01
3.389266218686e+01
3.365093217249e+01
3.344121426774e+01
3.391087750621e+01
3.380358593207e+01
3.388962984609e+01
3.389470146728e+01
3.364486554662e+01
3.344232097701e+01
3.391178928197e+01
3.380373054527e+01
3.388619755960e+01
3.388707108268e+01
3.380343515490e+01
3.391257166627e+01
3.360984719718e+01
3.380475680994e+01
3.361175035313e+01
3.380127867856e+01
3.361257575536e+01
3.380213415400e+01
3.361339725862e+01
3.380856985632e+01
3.429814907655e+01
3.364277619701e+01
3.364293126504e+01
3.364326586375e+01
3.364504675556e+01
3.323692317510e+01
3.323249881234e+01
3.322461035165e+01
3.324370352504e+01
3.358564373320e+01
3.343979181870e+01
3.327024220955e+01
3.326552659132e+01
3.344394036253e+01
3.358590073646e+01
3.359383421357e+01
3.352549682098e+01
3.358046978882e+01
3.358576161758e+01
3.343982195440e+01
3.326914722715e+01
3.359295861186e+01
3.352521970980e+01
3.358187332234e+01
3.358794621993e+01
3.343480678844e+01
3.327278636944e+01
3.359365272777e+01
3.352539869362e+01
3.358006974966e+01
3.358045854830e+01
3.352539290923e+01
3.359387263589e+01
3.342179118789e+01
3.353102448601e+01
3.342265996756e+01
3.352861618479e+01
3.342241334915e+01
3.352935729727e+01
3.342337631021e+01
3.353312849251e+01
3.307638304871e+01
3.329611370448e+01
3.329625826229e+01
3.329642316737e+01
3.329743115201e+01
3.305697817707e+01
3.305571276829e+01
3.305355286290e+01
3.305847601716e+01
3.326277191597e+01
3.318732061605e+01
3.310092239788e+01
3.309875743337e+01
3.318954653333e+01
3.326266831219e+01
3.326512800670e+01
3.322615418738e+01
3.325892374412e+01
3.326290033875e+01
3.318732460999e+01
3.310048714757e+01
3.326470206459e+01
3.322595143173e+01
3.325967964080e+01
3.326432304610e+01
3.318462379053e+01
3.310198777912e+01
3.326510702038e+01
3.322604011058e+01
3.325882036667e+01
3.325900289516e+01
3.322612270765e+01
3.326516728031e+01
3.317604342522e+01
3.323229083218e+01
3.317643626398e+01
3.323071022030e+01
3.317614085889e+01
3.323148323103e+01
3.317675207900e+01
3.323339089692e+01
3.307363300299e+01
3.294342675692e+01
3.294353320840e+01
3.294365668716e+01
3.294406093194e+01
3.285240920538e+01
3.285187398539e+01
3.285080582897e+01
3.285337826369e+01
3.292672972275e+01
3.289386818173e+01
3.286166191098e+01
3.286080509899e+01
3.289476933690e+01
3.292662522240e+01
3.292675786263e+01
3.290743139092e+01
3.292433068065e+01
3.292682273977e+01
3.289382475600e+01
3.286141510910e+01
3.292657322873e+01
3.290730698714e+01
3.292466562157e+01
3.292754366842e+01
3.289272500649e+01
3.286198545264e+01
3.292677153213e+01
3.290733824640e+01
3.292434577384e+01
3.292443133658e+01
3.290743565608e+01
3.292678301281e+01
3.288687305484e+01
3.291201745279e+01
3.288700889555e+01
3.291110970638e+01
3.288680057406e+01
3.291171068739e+01
3.288712366164e+01
3.291252457363e+01
3.284753200540e+01
3.160039724579e+01
3.160038739585e+01
3.160045250715e+01
3.160037550240e+01
3.160779198345e+01
3.160784478401e+01
3.160797676047e+01
3.160767104075e+01
3.160147015757e+01
3.160413196352e+01
3.160704592991e+01
3.160714168889e+01
3.160409660575e+01
3.160151298841e+01
3.160133711464e+01
3.160257469442e+01
3.160153221503e+01
3.160145628670e+01
3.160412313602e+01
3.160706031800e+01
3.160131783226e+01
3.160254842539e+01
3.160148823571e+01
3.160145109867e+01