# vtk DataFile Version 3.0
Unstructured Grid from OpenGeoSys
ASCII
DATASET UNSTRUCTURED_GRID
FIELD TimesAndCycles 2
TIME 1 1 double
3.600000000000e+03
CYLCE 1 1 long
1
POINTS 1394 double
0.000000000000e+00 0.000000000000e+00 0.000000000000e+00
5.000000000000e+00 0.000000000000e+00 0.000000000000e+00
5.000000000000e+00 5.000000000000e+00 0.000000000000e+00
0.000000000000e+00 5.000000000000e+00 0.000000000000e+00
2.244234909000e+00 2.244234909000e+00 0.000000000000e+00
2.755765091000e+00 2.244234909000e+00 0.000000000000e+00
2.755765091000e+00 2.755765091000e+00 0.000000000000e+00
2.244234909000e+00 2.755765091000e+00 0.000000000000e+00
7.141316008320e-01 7.141316008320e-01 0.000000000000e+00
1.314642334730e+00 1.314642334730e+00 0.000000000000e+00
1.819609643610e+00 1.819609643610e+00 0.000000000000e+00
1.819609643610e+00 3.180390356390e+00 0.000000000000e+00
1.314642334740e+00 3.685357665260e+00 0.000000000000e+00
7.141316008360e-01 4.285868399160e+00 0.000000000000e+00
0.000000000000e+00 3.750000000000e+00 0.000000000000e+00
0.000000000000e+00 2.500000000000e+00 0.000000000000e+00
0.000000000000e+00 1.250000000000e+00 0.000000000000e+00
4.285868399170e+00 7.141316008320e-01 0.000000000000e+00
3.685357665270e+00 1.314642334730e+00 0.000000000000e+00
3.180390356390e+00 1.819609643610e+00 0.000000000000e+00
1.250000000000e+00 0.000000000000e+00 0.000000000000e+00
2.500000000000e+00 0.000000000000e+00 0.000000000000e+00
3.750000000000e+00 0.000000000000e+00 0.000000000000e+00
4.285868399170e+00 4.285868399170e+00 0.000000000000e+00
3.685357665270e+00 3.685357665270e+00 0.000000000000e+00
3.180390356390e+00 3.180390356390e+00 0.000000000000e+00
5.000000000000e+00 1.250000000000e+00 0.000000000000e+00
5.000000000000e+00 2.500000000000e+00 0.000000000000e+00
5.000000000000e+00 3.750000000000e+00 0.000000000000e+00
3.750000000000e+00 5.000000000000e+00 0.000000000000e+00
2.500000000000e+00 5.000000000000e+00 0.000000000000e+00
1.250000000000e+00 5.000000000000e+00 0.000000000000e+00
9.560744151940e-01 2.677827143250e+00 0.000000000000e+00
6.659597640160e-01 1.438876720610e+00 0.000000000000e+00
2.309219871940e+00 9.522638293400e-01 0.000000000000e+00
3.458157207860e+00 6.354750772000e-01 0.000000000000e+00
4.043925584810e+00 2.322172856750e+00 0.000000000000e+00
4.334040235980e+00 3.561123279390e+00 0.000000000000e+00
2.318530875810e+00 4.048536535600e+00 0.000000000000e+00
3.552396921680e+00 4.370927842320e+00 0.000000000000e+00
2.500000000000e+00 2.500000000000e+00 0.000000000000e+00
0.000000000000e+00 0.000000000000e+00 -5.000000000000e-01
5.000000000000e+00 0.000000000000e+00 -5.000000000000e-01
5.000000000000e+00 5.000000000000e+00 -5.000000000000e-01
0.000000000000e+00 5.000000000000e+00 -5.000000000000e-01
2.244234909000e+00 2.244234909000e+00 -5.000000000000e-01
2.755765091000e+00 2.244234909000e+00 -5.000000000000e-01
2.755765091000e+00 2.755765091000e+00 -5.000000000000e-01
2.244234909000e+00 2.755765091000e+00 -5.000000000000e-01
7.141316008320e-01 7.141316008320e-01 -5.000000000000e-01
1.314642334730e+00 1.314642334730e+00 -5.000000000000e-01
1.819609643610e+00 1.819609643610e+00 -5.000000000000e-01
1.819609643610e+00 3.180390356390e+00 -5.000000000000e-01
1.314642334740e+00 3.685357665260e+00 -5.000000000000e-01
7.141316008360e-01 4.285868399160e+00 -5.000000000000e-01
0.000000000000e+00 3.750000000000e+00 -5.000000000000e-01
0.000000000000e+00 2.500000000000e+00 -5.000000000000e-01
0.000000000000e+00 1.250000000000e+00 -5.000000000000e-01
4.285868399170e+00 7.141316008320e-01 -5.000000000000e-01
3.685357665270e+00 1.314642334730e+00 -5.000000000000e-01
3.180390356390e+00 1.819609643610e+00 -5.000000000000e-01
1.250000000000e+00 0.000000000000e+00 -5.000000000000e-01
2.500000000000e+00 0.000000000000e+00 -5.000000000000e-01
3.750000000000e+00 0.000000000000e+00 -5.000000000000e-01
4.285868399170e+00 4.285868399170e+00 -5.000000000000e-01
3.685357665270e+00 3.685357665270e+00 -5.000000000000e-01
3.180390356390e+00 3.180390356390e+00 -5.000000000000e-01
5.000000000000e+00 1.250000000000e+00 -5.000000000000e-01
5.000000000000e+00 2.500000000000e+00 -5.000000000000e-01
5.000000000000e+00 3.750000000000e+00 -5.000000000000e-01
3.750000000000e+00 5.000000000000e+00 -5.000000000000e-01
2.500000000000e+00 5.000000000000e+00 -5.000000000000e-01
1.250000000000e+00 5.000000000000e+00 -5.000000000000e-01
9.560744151940e-01 2.677827143250e+00 -5.000000000000e-01
6.659597640160e-01 1.438876720610e+00 -5.000000000000e-01
2.309219871940e+00 9.522638293400e-01 -5.000000000000e-01
3.458157207860e+00 6.354750772000e-01 -5.000000000000e-01
4.043925584810e+00 2.322172856750e+00 -5.000000000000e-01
4.334040235980e+00 3.561123279390e+00 -5.000000000000e-01
2.318530875810e+00 4.048536535600e+00 -5.000000000000e-01
3.552396921680e+00 4.370927842320e+00 -5.000000000000e-01
2.500000000000e+00 2.500000000000e+00 -5.000000000000e-01
0.000000000000e+00 0.000000000000e+00 -1.000000000000e+00
5.000000000000e+00 0.000000000000e+00 -1.000000000000e+00
5.000000000000e+00 5.000000000000e+00 -1.000000000000e+00
0.000000000000e+00 5.000000000000e+00 -1.000000000000e+00
2.244234909000e+00 2.244234909000e+00 -1.000000000000e+00
2.755765091000e+00 2.244234909000e+00 -1.000000000000e+00
2.755765091000e+00 2.755765091000e+00 -1.000000000000e+00
2.244234909000e+00 2.755765091000e+00 -1.000000000000e+00
7.141316008320e-01 7.141316008320e-01 -1.000000000000e+00
1.314642334730e+00 1.314642334730e+00 -1.000000000000e+00
1.819609643610e+00 1.819609643610e+00 -1.000000000000e+00
1.819609643610e+00 3.180390356390e+00 -1.000000000000e+00
1.314642334740e+00 3.685357665260e+00 -1.000000000000e+00
7.141316008360e-01 4.285868399160e+00 -1.000000000000e+00
0.000000000000e+00 3.750000000000e+00 -1.000000000000e+00
0.000000000000e+00 2.500000000000e+00 -1.000000000000e+00
0.000000000000e+00 1.250000000000e+00 -1.000000000000e+00
4.285868399170e+00 7.141316008320e-01 -1.000000000000e+00
3.685357665270e+00 1.314642334730e+00 -1.000000000000e+00
3.180390356390e+00 1.819609643610e+00 -1.000000000000e+00
1.250000000000e+00 0.000000000000e+00 -1.000000000000e+00
2.500000000000e+00 0.000000000000e+00 -1.000000000000e+00
3.750000000000e+00 0.000000000000e+00 -1.000000000000e+00
4.285868399170e+00 4.285868399170e+00 -1.000000000000e+00
3.685357665270e+00 3.685357665270e+00 -1.000000000000e+00
3.180390356390e+00 3.180390356390e+00 -1.000000000000e+00
5.000000000000e+00 1.250000000000e+00 -1.000000000000e+00
5.000000000000e+00 2.500000000000e+00 -1.000000000000e+00
5.000000000000e+00 3.750000000000e+00 -1.000000000000e+00
3.750000000000e+00 5.000000000000e+00 -1.000000000000e+00
2.500000000000e+00 5.000000000000e+00 -1.000000000000e+00
1.250000000000e+00 5.000000000000e+00 -1.000000000000e+00
9.560744151940e-01 2.677827143250e+00 -1.000000000000e+00
6.659597640160e-01 1.438876720610e+00 -1.000000000000e+00
2.309219871940e+00 9.522638293400e-01 -1.000000000000e+00
3.458157207860e+00 6.354750772000e-01 -1.000000000000e+00
4.043925584810e+00 2.322172856750e+00 -1.000000000000e+00
4.334040235980e+00 3.561123279390e+00 -1.000000000000e+00
2.318530875810e+00 4.048536535600e+00 -1.000000000000e+00
3.552396921680e+00 4.370927842320e+00 -1.000000000000e+00
2.500000000000e+00 2.500000000000e+00 -1.000000000000e+00
0.000000000000e+00 0.000000000000e+00 -3.000000000000e+00
5.000000000000e+00 0.000000000000e+00 -3.000000000000e+00
5.000000000000e+00 5.000000000000e+00 -3.000000000000e+00
0.000000000000e+00 5.000000000000e+00 -3.000000000000e+00
2.244234909000e+00 2.244234909000e+00 -3.000000000000e+00
2.755765091000e+00 2.244234909000e+00 -3.000000000000e+00
2.755765091000e+00 2.755765091000e+00 -3.000000000000e+00
2.244234909000e+00 2.755765091000e+00 -3.000000000000e+00
7.141316008320e-01 7.141316008320e-01 -3.000000000000e+00
1.314642334730e+00 1.314642334730e+00 -3.000000000000e+00
1.819609643610e+00 1.819609643610e+00 -3.000000000000e+00
1.819609643610e+00 3.180390356390e+00 -3.000000000000e+00
1.314642334740e+00 3.685357665260e+00 -3.000000000000e+00
7.141316008360e-01 4.285868399160e+00 -3.000000000000e+00
0.000000000000e+00 3.750000000000e+00 -3.000000000000e+00
0.000000000000e+00 2.500000000000e+00 -3.000000000000e+00
0.000000000000e+00 1.250000000000e+00 -3.000000000000e+00
4.285868399170e+00 7.141316008320e-01 -3.000000000000e+00
3.685357665270e+00 1.314642334730e+00 -3.000000000000e+00
3.180390356390e+00 1.819609643610e+00 -3.000000000000e+00
1.250000000000e+00 0.000000000000e+00 -3.000000000000e+00
2.500000000000e+00 0.000000000000e+00 -3.000000000000e+00
3.750000000000e+00 0.000000000000e+00 -3.000000000000e+00
4.285868399170e+00 4.285868399170e+00 -3.000000000000e+00
3.685357665270e+00 3.685357665270e+00 -3.000000000000e+00
3.180390356390e+00 3.180390356390e+00 -3.000000000000e+00
5.000000000000e+00 1.250000000000e+00 -3.000000000000e+00
5.000000000000e+00 2.500000000000e+00 -3.000000000000e+00
5.000000000000e+00 3.750000000000e+00 -3.000000000000e+00
3.750000000000e+00 5.000000000000e+00 -3.000000000000e+00
2.500000000000e+00 5.000000000000e+00 -3.000000000000e+00
1.250000000000e+00 5.000000000000e+00 -3.000000000000e+00
9.560744151940e-01 2.677827143250e+00 -3.000000000000e+00
6.659597640160e-01 1.438876720610e+00 -3.000000000000e+00
2.309219871940e+00 9.522638293400e-01 -3.000000000000e+00
3.458157207860e+00 6.354750772000e-01 -3.000000000000e+00
4.043925584810e+00 2.322172856750e+00 -3.000000000000e+00
4.334040235980e+00 3.561123279390e+00 -3.000000000000e+00
2.318530875810e+00 4.048536535600e+00 -3.000000000000e+00
3.552396921680e+00 4.370927842320e+00 -3.000000000000e+00
2.500000000000e+00 2.500000000000e+00 -3.000000000000e+00
0.000000000000e+00 0.000000000000e+00 -5.000000000000e+00
5.000000000000e+00 0.000000000000e+00 -5.000000000000e+00
5.000000000000e+00 5.000000000000e+00 -5.000000000000e+00
0.000000000000e+00 5.000000000000e+00 -5.000000000000e+00
2.244234909000e+00 2.244234909000e+00 -5.000000000000e+00
[...]
POINT_DATA 1394
SCALARS TEMPERATURE1 double 1
LOOKUP_TABLE default
1.000000000000e+01
1.000000000000e+01
1.000000000000e+01
1.000000000000e+01
1.000000000000e+01
1.000000000000e+01
1.000000000000e+01
1.000000000000e+01
1.000000000000e+01
1.000000000000e+01
1.000000000000e+01
1.000000000000e+01
1.000000000000e+01
1.000000000000e+01
1.000000000000e+01
1.000000000000e+01
1.000000000000e+01
1.000000000000e+01
1.000000000000e+01
1.000000000000e+01
1.000000000000e+01
1.000000000000e+01
1.000000000000e+01
1.000000000000e+01
1.000000000000e+01
1.000000000000e+01
1.000000000000e+01
1.000000000000e+01
1.000000000000e+01
1.000000000000e+01
1.000000000000e+01
1.000000000000e+01
1.000000000000e+01
1.000000000000e+01
1.000000000000e+01
1.000000000000e+01
1.000000000000e+01
1.000000000000e+01
1.000000000000e+01
1.000000000000e+01
1.000000000000e+01
1.993365063991e+01
1.993330051849e+01
1.993506072708e+01
1.993529213875e+01
1.910076072302e+01
1.909533595085e+01
1.907322437336e+01
1.913139828591e+01
1.988886649915e+01
1.972626010208e+01
1.939083735613e+01
1.938119800177e+01
1.973530376707e+01
1.988960295689e+01
1.990324957366e+01
1.985072638924e+01
1.988702104168e+01
1.988861969357e+01
1.972713725324e+01
1.939310495736e+01
1.990216616417e+01
1.985001416052e+01
1.988821875630e+01
1.989188829220e+01
1.971826269263e+01
1.940432517166e+01
1.990273274015e+01
1.985065610723e+01
1.988678282802e+01
1.988715526404e+01
1.985076199218e+01
1.990341345051e+01
1.974423107545e+01
1.984291622219e+01
1.974458583635e+01
1.984211577955e+01
1.974421884560e+01
1.984090202806e+01
1.974595184744e+01
1.984512977423e+01
1.967665953035e+01
2.928063696830e+01
2.928046943489e+01
2.928620175320e+01
2.928368385820e+01
2.574236627490e+01
2.575298296670e+01
2.576837235078e+01
2.572655853078e+01
2.914231973446e+01
2.862319469181e+01
2.752883545268e+01
2.750867594639e+01
2.865181939157e+01
2.914396781628e+01
2.918963090996e+01
2.902576862091e+01
2.913743760119e+01
2.914166052651e+01
2.862578435913e+01
2.753660351678e+01
2.918708910259e+01
2.902402689802e+01
2.914154485015e+01
2.915163392576e+01
2.859626170846e+01
2.755339283134e+01
2.918864029279e+01
2.902545885708e+01
2.913632163444e+01
2.913772052087e+01
2.902540924175e+01
2.918948695731e+01
2.868464300518e+01
2.899782706422e+01
2.868680535586e+01
2.899583924084e+01
2.868700998108e+01
2.899062339383e+01
2.869151113135e+01
2.900427069086e+01
2.155211895325e+01
3.404893718498e+01
3.404893170425e+01
3.405682560205e+01
3.405441753388e+01
2.857584252974e+01
2.859104232601e+01
2.861335881570e+01
2.855203286885e+01
3.381663648421e+01
3.298321385082e+01
3.128527173168e+01
3.125363906317e+01
3.302721296627e+01
3.381852021671e+01
3.388941573561e+01
3.361513334436e+01
3.380717367122e+01
3.381590523591e+01
3.298711950721e+01
3.129657904796e+01
3.388560237018e+01
3.361266263646e+01
3.381409339756e+01
3.383159877056e+01
3.294074386253e+01
3.132224893007e+01
3.388834271063e+01
3.361473141771e+01
3.380516207661e+01
3.380734289072e+01
3.361443040817e+01
3.388921043495e+01
3.306564982267e+01
3.357735538658e+01
3.306938046973e+01
3.357338623326e+01
3.306930794576e+01
3.356583787035e+01
3.307630268758e+01
3.358766785723e+01
2.228884314128e+01
3.695491680852e+01
3.695523552284e+01
3.696455428197e+01
3.696189997288e+01
3.039468744633e+01
3.041152876680e+01
3.043593079966e+01
3.036806053971e+01
3.665541460277e+01
3.562605703189e+01
3.358404260203e+01
3.354543499555e+01
3.567893134690e+01
3.665719537886e+01
3.673999269896e+01
3.638711001376e+01
3.663994675807e+01
3.665480780712e+01
3.563061728188e+01
3.359691562627e+01
3.673553179104e+01
3.638416651693e+01
3.664871224432e+01
3.667409470346e+01
3.557428286092e+01
3.362784830800e+01
3.673908519763e+01
3.638650656823e+01
3.663755207652e+01
3.664020477718e+01
3.638618016291e+01
3.673973829007e+01
3.571119457764e+01
3.635106651396e+01
3.571594349733e+01
3.634499569108e+01
3.571543680692e+01
3.633696666545e+01
3.572399478838e+01
3.636379118641e+01
2.303786305911e+01
3.847652451492e+01
3.847703609682e+01
3.848701699712e+01
3.848423330999e+01
3.138606916163e+01
3.140384551583e+01
3.142967412533e+01
3.135753944728e+01
3.814301602254e+01
3.701790847341e+01
3.481022354641e+01
3.476829392660e+01
3.707505479715e+01
3.814466380232e+01
3.823279212984e+01
3.784028196320e+01
3.812424335473e+01
3.814250075043e+01
3.702277382666e+01
3.482385678667e+01
3.822805728706e+01
3.783712055404e+01
3.813393312894e+01
3.816356468856e+01
3.696157343465e+01
3.485720423527e+01
3.823202210893e+01
3.783957350047e+01
3.812167157395e+01
3.812454688707e+01
3.783923377009e+01
3.823251168749e+01
3.710330375996e+01
3.780610908690e+01
3.710856368761e+01
3.779891406717e+01
3.710779758782e+01
3.779075340266e+01
3.711711688885e+01
3.781999886024e+01
2.349853038412e+01
3.917437107464e+01
3.917496713541e+01
3.918518635941e+01
3.918238077899e+01
3.187594499693e+01
3.189395801579e+01
3.192015105702e+01
3.184680176790e+01
3.882674431540e+01
3.766236396727e+01
3.538868172416e+01
3.534538933263e+01
3.772119419200e+01
3.882832752176e+01
3.891860814386e+01
3.850962462388e+01
3.880658293624e+01
3.882627275578e+01
3.766734925854e+01
3.540257242502e+01
3.891377006688e+01
3.850638614425e+01
3.881666082078e+01
3.884803595649e+01
3.760419615388e+01
3.543690064727e+01
3.891790736062e+01
3.850887669290e+01
3.880393012647e+01
3.880689362259e+01
3.850852153892e+01
3.891831593891e+01
3.774740888153e+01
3.847633935261e+01
3.775289280160e+01
3.846866980287e+01
3.775201772355e+01
3.846046670544e+01
3.776163268743e+01
3.849070256311e+01
2.379370932804e+01
3.946961380192e+01
3.947024438886e+01
3.948054828914e+01
3.947773021896e+01
3.208839222179e+01
3.210656477210e+01
3.213299603601e+01
3.205894116798e+01
3.911659154254e+01
3.793727030038e+01
3.563788403954e+01
3.559407329599e+01
3.799675509935e+01
3.911813631627e+01
3.920921902838e+01
3.879397208078e+01
3.909589369477e+01
3.911613951048e+01
3.794230420184e+01
3.565189636075e+01
3.920435010473e+01
3.879070755103e+01
3.910612187091e+01
3.913817361896e+01
3.787838403435e+01
3.568658904379e+01
3.920855409570e+01
3.879321102146e+01
3.909320844936e+01
3.909620356181e+01
3.879284630283e+01
3.920892216693e+01
3.802228043035e+01
3.876105065427e+01
3.802785087185e+01
3.875320343034e+01
3.802692836536e+01
3.874497959388e+01
3.803665603344e+01
3.877558942063e+01
2.392007956069e+01
3.940488689760e+01
3.940551450626e+01
3.941540003032e+01
3.941280212124e+01
3.233428531170e+01
3.235147864336e+01
3.237695874143e+01
3.230544906734e+01
3.906343860565e+01
3.792891779774e+01
3.572604603864e+01
3.568407822251e+01
3.798591968954e+01
3.906490642019e+01
3.915185598781e+01
3.875026918563e+01
3.904299920411e+01
3.906302515722e+01
3.793370737497e+01
3.573932511667e+01
3.914714923125e+01
3.874711232886e+01
3.905284951005e+01
3.908424293128e+01
3.787243381376e+01
3.577247415049e+01
3.915120729743e+01
3.874950894156e+01
3.904044867615e+01
3.904332886035e+01
3.874919440464e+01
3.915157445397e+01
3.800806815573e+01
3.872010474924e+01
3.801343091990e+01
3.871236262486e+01
3.801251744063e+01
3.870468077564e+01
3.802187811826e+01
3.873411761425e+01
2.453006758155e+01
3.917334482250e+01
3.917394241650e+01
3.918340432805e+01
3.918100734799e+01
3.242573311665e+01
3.244201225783e+01
3.246650971624e+01
3.239770231091e+01
3.884583162318e+01
3.776054279172e+01
3.565819938326e+01
3.561817300077e+01
3.781496256583e+01
3.884725714631e+01
3.893012392423e+01
3.854492381370e+01
3.882604097164e+01
3.884543643324e+01
3.776509181384e+01
3.567078631194e+01
3.892558074004e+01
3.854187960291e+01
3.883545816594e+01
3.886576194127e+01
3.770662010474e+01
3.570236639785e+01
3.892946527021e+01
3.854417687478e+01
3.882362636474e+01
3.882638428443e+01
3.854390891057e+01
3.892985961589e+01
3.783490498942e+01
3.851676666108e+01
3.784002555246e+01
3.850925690202e+01
3.783915249796e+01
3.850203967203e+01
3.784811871624e+01
3.853019967931e+01
2.498504584698e+01
3.901876378666e+01
3.901934063913e+01
3.902847029484e+01
3.902623176677e+01
3.252245696797e+01
3.253801364133e+01
3.256173043537e+01
3.249506230203e+01
3.870193818785e+01
3.765471654500e+01
3.563053019145e+01
3.559200871570e+01
3.770712729661e+01
3.870332651823e+01
3.878300469116e+01
3.841037631264e+01
3.868262372223e+01
3.870155938925e+01
3.765907776159e+01
3.564257305846e+01
3.877859050659e+01
3.840742080876e+01
3.869170800343e+01
3.872119273174e+01
3.760277974298e+01
3.567293269918e+01
3.878234209517e+01
3.840963934366e+01
3.868031417841e+01
3.868297705549e+01
3.840940685302e+01
3.878275355895e+01
3.772525181611e+01
3.838384408168e+01
3.773018700775e+01
3.837650621144e+01
3.772934244658e+01
3.836965651130e+01
3.773800203833e+01
3.839682813130e+01
2.536616775098e+01
3.889224723546e+01
3.889280543219e+01
3.890166409151e+01
3.889955081032e+01
3.260103619045e+01
3.261601448207e+01
3.263909707657e+01
3.257417357890e+01
3.858431104106e+01
3.756840452976e+01
3.560803661874e+01
3.557074567623e+01
3.761917466615e+01
3.858567088968e+01
3.866276175189e+01
3.830058672955e+01
3.856541642227e+01
3.858394417864e+01
3.757261382755e+01
3.561964210013e+01
3.865845379148e+01
3.829770438302e+01
3.857422584848e+01
3.860300784025e+01
3.751809359330e+01
3.564900771469e+01
3.866209506873e+01
3.829985915113e+01
3.856319201819e+01
3.856577686382e+01
3.829965455277e+01
3.866252132038e+01
3.763592960783e+01
3.827531081689e+01
3.764071171850e+01
3.826812416370e+01
3.763989259428e+01
3.826156539568e+01
3.764830017819e+01
3.828792465504e+01
2.567557626183e+01
3.879922887166e+01
3.879977190754e+01
3.880842333949e+01
3.880640257009e+01
3.266468845244e+01
3.267923282810e+01
3.270183166651e+01
3.263824335999e+01
3.849819168882e+01
3.750637015611e+01
3.559477457433e+01
3.555842479575e+01
3.755588617557e+01
3.849953049715e+01
3.857465385702e+01
3.822059001935e+01
3.847963755046e+01
3.849783317527e+01
3.751046437494e+01
3.560605041332e+01
3.857042814323e+01
3.821776432106e+01
3.848823512386e+01
3.851645819529e+01
3.745730426267e+01
3.563465809276e+01
3.857398402841e+01
3.821987051468e+01
3.847747766265e+01
3.848000252750e+01
3.821968629877e+01
3.857442151407e+01
3.757166930826e+01
3.819622969474e+01
3.757633350682e+01
3.818916576459e+01
3.757553502567e+01
3.818282316362e+01
3.758374874684e+01
3.820855798001e+01
2.591483809092e+01
3.873625282427e+01
3.873678411660e+01
3.874528917110e+01
3.874332961121e+01
3.271232829092e+01
3.272657700845e+01
3.274883790542e+01
3.268618822290e+01
3.844021678010e+01
3.746560592409e+01
3.558848532323e+01
3.555280210884e+01
3.751423529995e+01
3.844154148554e+01
3.851528409803e+01
3.816709881059e+01
3.842192569747e+01
3.843986327236e+01
3.746962000215e+01
3.559953395632e+01
3.851111781296e+01
3.816431393236e+01
3.843037131904e+01
3.845817459505e+01
3.741742299772e+01
3.562760748727e+01
3.851461202710e+01
3.816638599361e+01
3.841981091994e+01
3.842229297061e+01
3.816621520574e+01
3.851505736732e+01
3.752942062146e+01
3.814333508077e+01
3.753400026020e+01
3.813636622255e+01
3.753321771665e+01
3.813016937238e+01
3.754129300378e+01
3.815545836241e+01
2.608560821489e+01
3.870243339934e+01
3.870295612256e+01
3.871137429120e+01
3.870944562408e+01
3.274429646989e+01
3.275838455692e+01
3.278045362638e+01
3.271834508042e+01
3.840955403082e+01
3.744546481926e+01
3.558890869571e+01
3.555362552020e+01
3.749356515899e+01
3.841087184075e+01
3.848380558015e+01
3.813932837643e+01
3.839145134030e+01
3.840920211308e+01
3.744943270311e+01
3.559982952030e+01
3.847967618055e+01
3.813656873806e+01
3.839980316436e+01
3.842732139218e+01
3.739781290046e+01
3.562758583808e+01
3.848313170471e+01
3.813862080933e+01
3.838936286977e+01
3.839181884483e+01
3.813845684346e+01
3.848358204941e+01
3.750851742090e+01
3.811584882303e+01
3.751304489240e+01
3.810894819856e+01
3.751227401924e+01
3.810282855858e+01
3.752026484520e+01
3.812784560885e+01
2.618949891675e+01
3.870943551007e+01
3.870995539694e+01
3.871835254877e+01
3.871642155316e+01
3.276604784620e+01
3.278012286379e+01
3.280214991770e+01
3.274017205335e+01
3.841749378904e+01
3.745616093119e+01
3.560430859541e+01
3.556911783782e+01
3.750413956122e+01
3.841880869020e+01
3.849156764260e+01
3.814819397128e+01
3.839946964032e+01
3.841714151612e+01
3.746012072730e+01
3.561521235316e+01
3.848745113818e+01
3.814544247766e+01
3.840779669564e+01
3.843520974072e+01
3.740863396121e+01
3.564289974138e+01
3.849089581524e+01
3.814748967727e+01
3.839738603896e+01
3.839983497483e+01
3.814732470895e+01
3.849134454571e+01
3.751919684947e+01
3.812470171470e+01
3.752371068156e+01
3.811783137890e+01
3.752294343857e+01
3.811171685360e+01
3.753091195244e+01
3.813666276145e+01
2.622613308498e+01
3.865831865186e+01
3.865883153965e+01
3.866720172168e+01
3.866528088274e+01
3.273321687462e+01
3.274725188766e+01
3.276924334171e+01
3.270736724157e+01
3.836752977686e+01
3.740934362549e+01
3.556312890135e+01
3.552805159781e+01
3.745717268273e+01
3.836885080845e+01
3.844145709129e+01
3.809941464144e+01
3.834963040145e+01
3.836717392241e+01
3.741329312109e+01
3.557399962758e+01
3.843734968192e+01
3.809667263800e+01
3.835792769088e+01
3.838517705472e+01
3.736197279189e+01
3.560159827048e+01
3.844078047937e+01
3.809871538966e+01
3.834754992141e+01
3.834999138084e+01
3.809854818846e+01
3.844123431963e+01
3.747234971071e+01
3.807582442027e+01
3.747684972539e+01
3.806899449677e+01
3.747609436551e+01
3.806287975102e+01
3.748403372995e+01
3.808774656361e+01
2.620951145632e+01
3.844178144662e+01
3.844227974204e+01
3.845055880509e+01
3.844859300289e+01
3.259412189426e+01
3.260807066071e+01
3.262981439349e+01
3.256870029711e+01
3.815605345912e+01
3.721275287532e+01
3.539124698818e+01
3.535665511188e+01
3.725995257646e+01
3.815736188589e+01
3.822898737651e+01
3.789291447220e+01
3.813854613317e+01
3.815569485880e+01
3.721666112896e+01
3.540204594265e+01
3.822494927813e+01
3.789020976674e+01
3.814670677416e+01
3.817343401213e+01
3.716604267057e+01
3.542930217560e+01
3.822832029782e+01
3.789222841347e+01
3.813650017840e+01
3.813890435957e+01
3.789206258246e+01
3.822876689777e+01
3.727580361046e+01
3.786929161117e+01
3.728022383722e+01
3.786262260817e+01
3.727948496806e+01
3.785653871252e+01
3.728731146663e+01
3.788102088358e+01
2.615684390500e+01
3.782216743565e+01
3.782260905894e+01
3.783044713659e+01
3.782876134752e+01
3.223278088220e+01
3.224618131564e+01
3.226770688982e+01
3.220723343525e+01
3.754946486891e+01
3.664688041857e+01
3.490644669369e+01
3.487350308066e+01
3.669192560682e+01
3.755077004890e+01
3.761978935171e+01
3.729885176506e+01
3.753310708032e+01
3.754909696588e+01
3.665060895766e+01
3.491667573358e+01
3.761588316339e+01
3.729628219643e+01
3.754090912551e+01
3.756601254770e+01
3.660229158895e+01
3.494251207108e+01
3.761909910463e+01
3.729822205257e+01
3.753110873734e+01
3.753341081221e+01
3.729803507117e+01
3.761957822072e+01
3.670706308733e+01
3.727545293188e+01
3.671131934779e+01
3.726913293952e+01
3.671068201618e+01
3.726324572059e+01
3.671812741374e+01
3.728668846799e+01
2.602094500896e+01
3.660986852715e+01
3.661006297703e+01
3.661747316889e+01
3.661529602853e+01
3.140974934462e+01
3.142200147564e+01
3.143937441392e+01
3.139047890589e+01
3.637413693987e+01
3.555614302680e+01
3.392794465059e+01
3.389686198581e+01
3.559823310664e+01
3.637565396395e+01
3.644219406657e+01
3.616422143932e+01
3.636234761486e+01
3.637361096825e+01
3.555983106985e+01
3.393819001262e+01
3.643865727076e+01
3.616190264919e+01
3.636930789952e+01
3.638877772687e+01
3.551502296145e+01
3.396338087974e+01
3.644144520785e+01
3.616376253123e+01
3.636041252107e+01
3.636249254991e+01
3.616345389745e+01
3.644198199902e+01
3.562601412212e+01
3.613380803325e+01
3.562983315140e+01
3.612920360256e+01
3.562949951508e+01
3.612255923358e+01
3.563622868500e+01
3.614387357766e+01
2.577837096785e+01
3.489484124105e+01
3.489493116167e+01
3.489925214413e+01
3.489771924048e+01
3.147806630615e+01
3.149625536941e+01
3.153524473563e+01
3.143175724609e+01
3.476658697682e+01
3.431359563254e+01
3.334582355412e+01
3.333141163881e+01
3.433873436091e+01
3.476699675622e+01
3.480428425292e+01
3.465503519344e+01
3.476089118268e+01
3.476622634558e+01
3.431579700587e+01
3.335364891647e+01
3.480236674613e+01
3.465360209911e+01
3.476467356775e+01
3.477564672545e+01
3.428919045567e+01
3.336296539462e+01
3.480381596006e+01
3.465474237177e+01
3.475990165998e+01
3.476104455170e+01
3.465464305451e+01
3.480411703271e+01
3.436568219417e+01
3.463640801032e+01
3.436770297153e+01
3.463424408027e+01
3.436768694593e+01
3.463008985873e+01
3.437162622821e+01
3.464187915054e+01
2.617749638475e+01
3.442190757143e+01
3.442200123997e+01
3.442492739793e+01
3.442422372590e+01
3.306814078991e+01
3.306018565441e+01
3.303030106176e+01
3.310771454336e+01
3.432943580000e+01
3.402661787973e+01
3.348766737645e+01
3.347249123268e+01
3.404079953358e+01
3.433045452340e+01
3.435311180288e+01
3.424257049873e+01
3.432312685890e+01
3.432933895908e+01
3.402779253584e+01
3.348955432341e+01
3.435165086724e+01
3.424167910315e+01
3.432569561154e+01
3.433435355463e+01
3.401286881841e+01
3.350520943568e+01
3.435282655396e+01
3.424235344404e+01
3.432252385281e+01
3.432334651309e+01
3.424238007891e+01
3.435315648534e+01
3.403827990304e+01
3.423583087838e+01
3.403950701694e+01
3.423339785787e+01
3.403894289947e+01
3.423190473140e+01
3.404155908369e+01
3.423980016223e+01
3.383914193768e+01
3.394361884759e+01
3.394378598418e+01
3.394515675212e+01
3.394559859703e+01
3.342770267211e+01
3.342124976087e+01
3.341010252385e+01
3.343682102645e+01
3.388274017214e+01
3.371167003479e+01
3.348591772743e+01
3.347954402428e+01
3.371746833680e+01
3.388356534542e+01
3.389384302863e+01
3.382003987411e+01
3.387694163056e+01
3.388272755383e+01
3.371190976224e+01
3.348478742754e+01
3.389275297657e+01
3.381950603566e+01
3.387845313540e+01
3.388518536486e+01
3.370566397678e+01
3.349040775424e+01
3.389343245414e+01
3.381975045923e+01
3.387668323572e+01
3.387718565951e+01
3.381992514761e+01
3.389381952656e+01
3.369895071437e+01
3.382289434565e+01
3.369988231535e+01
3.382047756312e+01
3.369983220287e+01
3.382081718885e+01
3.370102333423e+01
3.382531577662e+01
3.323868985086e+01
3.346708937961e+01
3.346723138232e+01
3.346772348039e+01
3.346860964254e+01
3.321600487848e+01
3.321482007979e+01
3.321304544591e+01
3.321695802878e+01
3.343047924042e+01
3.334622386886e+01
3.325495361345e+01
3.325276630478e+01
3.334869873180e+01
3.343064308771e+01
3.343361631931e+01
3.339018353925e+01
3.342626034539e+01
3.343056287985e+01
3.334615670556e+01
3.325423515709e+01
3.343298555661e+01
3.338986330029e+01
3.342701857467e+01
3.343217771910e+01
3.334339984564e+01
3.325565783883e+01
3.343340235796e+01
3.339000575697e+01
3.342620726247e+01
3.342647819602e+01
3.339020651792e+01
3.343365442379e+01
3.333285376241e+01
3.339658498624e+01
3.333321845593e+01
3.339476555224e+01
3.333301839943e+01
3.339572821945e+01
3.333375805690e+01
3.339791690737e+01
3.323896543988e+01
3.300043868732e+01
3.300055117700e+01
3.300093398128e+01
3.300121367774e+01
3.289757245295e+01
3.289697230767e+01
3.289578014835e+01
3.289872507755e+01
3.298126832308e+01
3.294446606088e+01
3.290850730548e+01
3.290760596563e+01
3.294561008881e+01
3.298127325184e+01
3.298108802825e+01
3.295880205186e+01
3.297830405913e+01
3.298134787608e+01
3.294438642607e+01
3.290823415406e+01
3.298078135130e+01
3.295856420341e+01
3.297862303076e+01
3.298230141185e+01
3.294321341111e+01
3.290893430995e+01
3.298099368470e+01
3.295864269426e+01
3.297841277119e+01
3.297854376984e+01
3.295886213537e+01
3.298112601620e+01
3.293640044774e+01
3.296446827274e+01
3.293645841121e+01
3.296334020326e+01
3.293623334099e+01
3.296417043631e+01
3.293670000092e+01
3.296510580163e+01
3.289183356845e+01
3.139361856291e+01
3.139359205460e+01
3.139371949414e+01
3.139366302326e+01
3.140035957080e+01
3.140040953443e+01
3.140055929213e+01
3.140022745645e+01
3.139442321461e+01
3.139673405383e+01
3.139948514592e+01
3.139959808565e+01
3.139674543877e+01
3.139451574275e+01
3.139428549058e+01
3.139519700817e+01
3.139442264881e+01
3.139439527440e+01
3.139671410410e+01
3.139948705324e+01
3.139421303250e+01
3.139513163816e+01
3.139436056272e+01
3.139445033797e+01