# vtk DataFile Version 3.0
Unstructured Grid from OpenGeoSys
ASCII
DATASET UNSTRUCTURED_GRID
FIELD TimesAndCycles 2
TIME 1 1 double
3.600000000000e+03
CYLCE 1 1 long
1
POINTS 1394 double
0.000000000000e+00 0.000000000000e+00 0.000000000000e+00
5.000000000000e+00 0.000000000000e+00 0.000000000000e+00
5.000000000000e+00 5.000000000000e+00 0.000000000000e+00
0.000000000000e+00 5.000000000000e+00 0.000000000000e+00
2.244234909000e+00 2.244234909000e+00 0.000000000000e+00
2.755765091000e+00 2.244234909000e+00 0.000000000000e+00
2.755765091000e+00 2.755765091000e+00 0.000000000000e+00
2.244234909000e+00 2.755765091000e+00 0.000000000000e+00
7.141316008320e-01 7.141316008320e-01 0.000000000000e+00
1.314642334730e+00 1.314642334730e+00 0.000000000000e+00
1.819609643610e+00 1.819609643610e+00 0.000000000000e+00
1.819609643610e+00 3.180390356390e+00 0.000000000000e+00
1.314642334740e+00 3.685357665260e+00 0.000000000000e+00
7.141316008360e-01 4.285868399160e+00 0.000000000000e+00
0.000000000000e+00 3.750000000000e+00 0.000000000000e+00
0.000000000000e+00 2.500000000000e+00 0.000000000000e+00
0.000000000000e+00 1.250000000000e+00 0.000000000000e+00
4.285868399170e+00 7.141316008320e-01 0.000000000000e+00
3.685357665270e+00 1.314642334730e+00 0.000000000000e+00
3.180390356390e+00 1.819609643610e+00 0.000000000000e+00
1.250000000000e+00 0.000000000000e+00 0.000000000000e+00
2.500000000000e+00 0.000000000000e+00 0.000000000000e+00
3.750000000000e+00 0.000000000000e+00 0.000000000000e+00
4.285868399170e+00 4.285868399170e+00 0.000000000000e+00
3.685357665270e+00 3.685357665270e+00 0.000000000000e+00
3.180390356390e+00 3.180390356390e+00 0.000000000000e+00
5.000000000000e+00 1.250000000000e+00 0.000000000000e+00
5.000000000000e+00 2.500000000000e+00 0.000000000000e+00
5.000000000000e+00 3.750000000000e+00 0.000000000000e+00
3.750000000000e+00 5.000000000000e+00 0.000000000000e+00
2.500000000000e+00 5.000000000000e+00 0.000000000000e+00
1.250000000000e+00 5.000000000000e+00 0.000000000000e+00
9.560744151940e-01 2.677827143250e+00 0.000000000000e+00
6.659597640160e-01 1.438876720610e+00 0.000000000000e+00
2.309219871940e+00 9.522638293400e-01 0.000000000000e+00
3.458157207860e+00 6.354750772000e-01 0.000000000000e+00
4.043925584810e+00 2.322172856750e+00 0.000000000000e+00
4.334040235980e+00 3.561123279390e+00 0.000000000000e+00
2.318530875810e+00 4.048536535600e+00 0.000000000000e+00
3.552396921680e+00 4.370927842320e+00 0.000000000000e+00
2.500000000000e+00 2.500000000000e+00 0.000000000000e+00
0.000000000000e+00 0.000000000000e+00 -5.000000000000e-01
5.000000000000e+00 0.000000000000e+00 -5.000000000000e-01
5.000000000000e+00 5.000000000000e+00 -5.000000000000e-01
0.000000000000e+00 5.000000000000e+00 -5.000000000000e-01
2.244234909000e+00 2.244234909000e+00 -5.000000000000e-01
2.755765091000e+00 2.244234909000e+00 -5.000000000000e-01
2.755765091000e+00 2.755765091000e+00 -5.000000000000e-01
2.244234909000e+00 2.755765091000e+00 -5.000000000000e-01
7.141316008320e-01 7.141316008320e-01 -5.000000000000e-01
1.314642334730e+00 1.314642334730e+00 -5.000000000000e-01
1.819609643610e+00 1.819609643610e+00 -5.000000000000e-01
1.819609643610e+00 3.180390356390e+00 -5.000000000000e-01
1.314642334740e+00 3.685357665260e+00 -5.000000000000e-01
7.141316008360e-01 4.285868399160e+00 -5.000000000000e-01
0.000000000000e+00 3.750000000000e+00 -5.000000000000e-01
0.000000000000e+00 2.500000000000e+00 -5.000000000000e-01
0.000000000000e+00 1.250000000000e+00 -5.000000000000e-01
4.285868399170e+00 7.141316008320e-01 -5.000000000000e-01
3.685357665270e+00 1.314642334730e+00 -5.000000000000e-01
3.180390356390e+00 1.819609643610e+00 -5.000000000000e-01
1.250000000000e+00 0.000000000000e+00 -5.000000000000e-01
2.500000000000e+00 0.000000000000e+00 -5.000000000000e-01
3.750000000000e+00 0.000000000000e+00 -5.000000000000e-01
4.285868399170e+00 4.285868399170e+00 -5.000000000000e-01
3.685357665270e+00 3.685357665270e+00 -5.000000000000e-01
3.180390356390e+00 3.180390356390e+00 -5.000000000000e-01
5.000000000000e+00 1.250000000000e+00 -5.000000000000e-01
5.000000000000e+00 2.500000000000e+00 -5.000000000000e-01
5.000000000000e+00 3.750000000000e+00 -5.000000000000e-01
3.750000000000e+00 5.000000000000e+00 -5.000000000000e-01
2.500000000000e+00 5.000000000000e+00 -5.000000000000e-01
1.250000000000e+00 5.000000000000e+00 -5.000000000000e-01
9.560744151940e-01 2.677827143250e+00 -5.000000000000e-01
6.659597640160e-01 1.438876720610e+00 -5.000000000000e-01
2.309219871940e+00 9.522638293400e-01 -5.000000000000e-01
3.458157207860e+00 6.354750772000e-01 -5.000000000000e-01
4.043925584810e+00 2.322172856750e+00 -5.000000000000e-01
4.334040235980e+00 3.561123279390e+00 -5.000000000000e-01
2.318530875810e+00 4.048536535600e+00 -5.000000000000e-01
3.552396921680e+00 4.370927842320e+00 -5.000000000000e-01
2.500000000000e+00 2.500000000000e+00 -5.000000000000e-01
0.000000000000e+00 0.000000000000e+00 -1.000000000000e+00
5.000000000000e+00 0.000000000000e+00 -1.000000000000e+00
5.000000000000e+00 5.000000000000e+00 -1.000000000000e+00
0.000000000000e+00 5.000000000000e+00 -1.000000000000e+00
2.244234909000e+00 2.244234909000e+00 -1.000000000000e+00
2.755765091000e+00 2.244234909000e+00 -1.000000000000e+00
2.755765091000e+00 2.755765091000e+00 -1.000000000000e+00
2.244234909000e+00 2.755765091000e+00 -1.000000000000e+00
7.141316008320e-01 7.141316008320e-01 -1.000000000000e+00
1.314642334730e+00 1.314642334730e+00 -1.000000000000e+00
1.819609643610e+00 1.819609643610e+00 -1.000000000000e+00
1.819609643610e+00 3.180390356390e+00 -1.000000000000e+00
1.314642334740e+00 3.685357665260e+00 -1.000000000000e+00
7.141316008360e-01 4.285868399160e+00 -1.000000000000e+00
0.000000000000e+00 3.750000000000e+00 -1.000000000000e+00
0.000000000000e+00 2.500000000000e+00 -1.000000000000e+00
0.000000000000e+00 1.250000000000e+00 -1.000000000000e+00
4.285868399170e+00 7.141316008320e-01 -1.000000000000e+00
3.685357665270e+00 1.314642334730e+00 -1.000000000000e+00
3.180390356390e+00 1.819609643610e+00 -1.000000000000e+00
1.250000000000e+00 0.000000000000e+00 -1.000000000000e+00
2.500000000000e+00 0.000000000000e+00 -1.000000000000e+00
3.750000000000e+00 0.000000000000e+00 -1.000000000000e+00
4.285868399170e+00 4.285868399170e+00 -1.000000000000e+00
3.685357665270e+00 3.685357665270e+00 -1.000000000000e+00
3.180390356390e+00 3.180390356390e+00 -1.000000000000e+00
5.000000000000e+00 1.250000000000e+00 -1.000000000000e+00
5.000000000000e+00 2.500000000000e+00 -1.000000000000e+00
5.000000000000e+00 3.750000000000e+00 -1.000000000000e+00
3.750000000000e+00 5.000000000000e+00 -1.000000000000e+00
2.500000000000e+00 5.000000000000e+00 -1.000000000000e+00
1.250000000000e+00 5.000000000000e+00 -1.000000000000e+00
9.560744151940e-01 2.677827143250e+00 -1.000000000000e+00
6.659597640160e-01 1.438876720610e+00 -1.000000000000e+00
2.309219871940e+00 9.522638293400e-01 -1.000000000000e+00
3.458157207860e+00 6.354750772000e-01 -1.000000000000e+00
4.043925584810e+00 2.322172856750e+00 -1.000000000000e+00
4.334040235980e+00 3.561123279390e+00 -1.000000000000e+00
2.318530875810e+00 4.048536535600e+00 -1.000000000000e+00
3.552396921680e+00 4.370927842320e+00 -1.000000000000e+00
2.500000000000e+00 2.500000000000e+00 -1.000000000000e+00
0.000000000000e+00 0.000000000000e+00 -3.000000000000e+00
5.000000000000e+00 0.000000000000e+00 -3.000000000000e+00
5.000000000000e+00 5.000000000000e+00 -3.000000000000e+00
0.000000000000e+00 5.000000000000e+00 -3.000000000000e+00
2.244234909000e+00 2.244234909000e+00 -3.000000000000e+00
2.755765091000e+00 2.244234909000e+00 -3.000000000000e+00
2.755765091000e+00 2.755765091000e+00 -3.000000000000e+00
2.244234909000e+00 2.755765091000e+00 -3.000000000000e+00
7.141316008320e-01 7.141316008320e-01 -3.000000000000e+00
1.314642334730e+00 1.314642334730e+00 -3.000000000000e+00
1.819609643610e+00 1.819609643610e+00 -3.000000000000e+00
1.819609643610e+00 3.180390356390e+00 -3.000000000000e+00
1.314642334740e+00 3.685357665260e+00 -3.000000000000e+00
7.141316008360e-01 4.285868399160e+00 -3.000000000000e+00
0.000000000000e+00 3.750000000000e+00 -3.000000000000e+00
0.000000000000e+00 2.500000000000e+00 -3.000000000000e+00
0.000000000000e+00 1.250000000000e+00 -3.000000000000e+00
4.285868399170e+00 7.141316008320e-01 -3.000000000000e+00
3.685357665270e+00 1.314642334730e+00 -3.000000000000e+00
3.180390356390e+00 1.819609643610e+00 -3.000000000000e+00
1.250000000000e+00 0.000000000000e+00 -3.000000000000e+00
2.500000000000e+00 0.000000000000e+00 -3.000000000000e+00
3.750000000000e+00 0.000000000000e+00 -3.000000000000e+00
4.285868399170e+00 4.285868399170e+00 -3.000000000000e+00
3.685357665270e+00 3.685357665270e+00 -3.000000000000e+00
3.180390356390e+00 3.180390356390e+00 -3.000000000000e+00
5.000000000000e+00 1.250000000000e+00 -3.000000000000e+00
5.000000000000e+00 2.500000000000e+00 -3.000000000000e+00
5.000000000000e+00 3.750000000000e+00 -3.000000000000e+00
3.750000000000e+00 5.000000000000e+00 -3.000000000000e+00
2.500000000000e+00 5.000000000000e+00 -3.000000000000e+00
1.250000000000e+00 5.000000000000e+00 -3.000000000000e+00
9.560744151940e-01 2.677827143250e+00 -3.000000000000e+00
6.659597640160e-01 1.438876720610e+00 -3.000000000000e+00
2.309219871940e+00 9.522638293400e-01 -3.000000000000e+00
3.458157207860e+00 6.354750772000e-01 -3.000000000000e+00
4.043925584810e+00 2.322172856750e+00 -3.000000000000e+00
4.334040235980e+00 3.561123279390e+00 -3.000000000000e+00
2.318530875810e+00 4.048536535600e+00 -3.000000000000e+00
3.552396921680e+00 4.370927842320e+00 -3.000000000000e+00
2.500000000000e+00 2.500000000000e+00 -3.000000000000e+00
0.000000000000e+00 0.000000000000e+00 -5.000000000000e+00
5.000000000000e+00 0.000000000000e+00 -5.000000000000e+00
5.000000000000e+00 5.000000000000e+00 -5.000000000000e+00
0.000000000000e+00 5.000000000000e+00 -5.000000000000e+00
2.244234909000e+00 2.244234909000e+00 -5.000000000000e+00
[...]
POINT_DATA 1394
SCALARS TEMPERATURE1 double 1
LOOKUP_TABLE default
1.000000000000e+01
1.000000000000e+01
1.000000000000e+01
1.000000000000e+01
1.000000000000e+01
1.000000000000e+01
1.000000000000e+01
1.000000000000e+01
1.000000000000e+01
1.000000000000e+01
1.000000000000e+01
1.000000000000e+01
1.000000000000e+01
1.000000000000e+01
1.000000000000e+01
1.000000000000e+01
1.000000000000e+01
1.000000000000e+01
1.000000000000e+01
1.000000000000e+01
1.000000000000e+01
1.000000000000e+01
1.000000000000e+01
1.000000000000e+01
1.000000000000e+01
1.000000000000e+01
1.000000000000e+01
1.000000000000e+01
1.000000000000e+01
1.000000000000e+01
1.000000000000e+01
1.000000000000e+01
1.000000000000e+01
1.000000000000e+01
1.000000000000e+01
1.000000000000e+01
1.000000000000e+01
1.000000000000e+01
1.000000000000e+01
1.000000000000e+01
1.000000000000e+01
1.670521918979e+01
1.670485203106e+01
1.669758996984e+01
1.669928903991e+01
2.041746476565e+01
2.044587654561e+01
2.053415051528e+01
2.030828759984e+01
1.697125890199e+01
1.785412314581e+01
1.938450909998e+01
1.942876130824e+01
1.781496870598e+01
1.696845120256e+01
1.690073225688e+01
1.722027215844e+01
1.698905893538e+01
1.697145540668e+01
1.785062881017e+01
1.938075699396e+01
1.690439379725e+01
1.722225089944e+01
1.698118328439e+01
1.695871254129e+01
1.789304264764e+01
1.933614990786e+01
1.690104300420e+01
1.722074886984e+01
1.699132454453e+01
1.698918108058e+01
1.722132119195e+01
1.690080300419e+01
1.782626987991e+01
1.724274596922e+01
1.782173623927e+01
1.724929183976e+01
1.782296834172e+01
1.725455810227e+01
1.781648622751e+01
1.723168306470e+01
1.833333925653e+01
2.391713158137e+01
2.391552422148e+01
2.390459374115e+01
2.390276594140e+01
3.474296420864e+01
3.470124680096e+01
3.462675425473e+01
3.482882249289e+01
2.447314441900e+01
2.617401406340e+01
2.938540080398e+01
2.944183691338e+01
2.609148615377e+01
2.447474523460e+01
2.435809999958e+01
2.500357128004e+01
2.451231156990e+01
2.447277533465e+01
2.616737562038e+01
2.936522556402e+01
2.436429386045e+01
2.500764153231e+01
2.449664787721e+01
2.443917361175e+01
2.625911645676e+01
2.932631270964e+01
2.435752124401e+01
2.500444624044e+01
2.451634308643e+01
2.451244487962e+01
2.500532651111e+01
2.435834857485e+01
2.609464129277e+01
2.501567578546e+01
2.608611689024e+01
2.503058398005e+01
2.608909669389e+01
2.503839930803e+01
2.607511588288e+01
2.499489719722e+01
4.912880794168e+01
2.770218333293e+01
2.769960799982e+01
2.768837368548e+01
2.768676099178e+01
3.798882376268e+01
3.796036178471e+01
3.791792583617e+01
3.803727527628e+01
2.831544265732e+01
3.008136562982e+01
3.322782181047e+01
3.328810897259e+01
3.000013402668e+01
2.831780407488e+01
2.821148470897e+01
2.892374783299e+01
2.836854570957e+01
2.831428770085e+01
3.007524389624e+01
3.321148770786e+01
2.821751052694e+01
2.892798239374e+01
2.835184028536e+01
2.828004637316e+01
3.016665797957e+01
3.316810545504e+01
2.821000882854e+01
2.892521500214e+01
2.837213398916e+01
2.836810181356e+01
2.892562574134e+01
2.821169188348e+01
3.005154081861e+01
2.890462382015e+01
3.004257200735e+01
2.892380834558e+01
3.004692700439e+01
2.892769248224e+01
3.003241425300e+01
2.888282231378e+01
4.986431232186e+01
2.944424365818e+01
2.944158444876e+01
2.943150377099e+01
2.942964279902e+01
3.889813567170e+01
3.887049981508e+01
3.882600508491e+01
3.895028905547e+01
3.002165141187e+01
3.165066261068e+01
3.451842374974e+01
3.457261091514e+01
3.157655457181e+01
3.002440623284e+01
2.993056765728e+01
3.060023541528e+01
3.007373152255e+01
3.002034413534e+01
3.164526939818e+01
3.450368804073e+01
2.993599550343e+01
3.060412702488e+01
3.005818239731e+01
2.998836379528e+01
3.172915059408e+01
3.446575993201e+01
2.992892039248e+01
3.060167753914e+01
3.007690417569e+01
3.007317245903e+01
3.060193734702e+01
2.993074336519e+01
3.163568348270e+01
3.057302424112e+01
3.162741127438e+01
3.059180665665e+01
3.163179853774e+01
3.059417426021e+01
3.161830941580e+01
3.055286913497e+01
5.010530318642e+01
3.007104753496e+01
3.006853436555e+01
3.005881449499e+01
3.005689714115e+01
3.924597038292e+01
3.921900174935e+01
3.917559656972e+01
3.929664674159e+01
3.062744222446e+01
3.220085495723e+01
3.498191010962e+01
3.503434939221e+01
3.212897925475e+01
3.063011723830e+01
3.053894296309e+01
3.118397489386e+01
3.067722170182e+01
3.062620796810e+01
3.219558885654e+01
3.496735616036e+01
3.054421531923e+01
3.118775176757e+01
3.066222387209e+01
3.059520551593e+01
3.227685596799e+01
3.493050503288e+01
3.053738691806e+01
3.118534075816e+01
3.068029633146e+01
3.067670040480e+01
3.118560230282e+01
3.053909567150e+01
3.218354878955e+01
3.115890420162e+01
3.217560316561e+01
3.117689400288e+01
3.217984698911e+01
3.117934451474e+01
3.216676665391e+01
3.113943945552e+01
5.009019289165e+01
3.024593602384e+01
3.024349631660e+01
3.023402772264e+01
3.023181410462e+01
3.929672657715e+01
3.927018253400e+01
3.922680963869e+01
3.934771014356e+01
3.079474404605e+01
3.234592405815e+01
3.508736278261e+01
3.513891583333e+01
3.227509435817e+01
3.079740729587e+01
3.070739964624e+01
3.134347935224e+01
3.084361477494e+01
3.079353508368e+01
3.234074347693e+01
3.507295093598e+01
3.071264820495e+01
3.134720665908e+01
3.082883264992e+01
3.076289035415e+01
3.242083245960e+01
3.503674801918e+01
3.070590541351e+01
3.134480110730e+01
3.084665995395e+01
3.084312022569e+01
3.134506433673e+01
3.070753050416e+01
3.232903078827e+01
3.131882093909e+01
3.232121536541e+01
3.133656934892e+01
3.232540977418e+01
3.133895533163e+01
3.231249202587e+01
3.129960773844e+01
4.997817250460e+01
3.026438385532e+01
3.026198491554e+01
3.025260759965e+01
3.025029275144e+01
3.926941640594e+01
3.924292801164e+01
3.919973135238e+01
3.932003564882e+01
3.080947736162e+01
3.235107549748e+01
3.507785767437e+01
3.512909672688e+01
3.228062583773e+01
3.081212534069e+01
3.072246101256e+01
3.135417007590e+01
3.085782815428e+01
3.080828595088e+01
3.234592130477e+01
3.506345002834e+01
3.072769961109e+01
3.135787658624e+01
3.084314635242e+01
3.077779079568e+01
3.242556121414e+01
3.502743504249e+01
3.072099759230e+01
3.135546620970e+01
3.086086703566e+01
3.085734980328e+01
3.135573499512e+01
3.072258112301e+01
3.233368731913e+01
3.133005503556e+01
3.232593723259e+01
3.134765373307e+01
3.233010635723e+01
3.135005952994e+01
3.231725067852e+01
3.131095013428e+01
4.991309081970e+01
3.001605875403e+01
3.001384721554e+01
3.000497882414e+01
3.000186250771e+01
3.888389040712e+01
3.885841429469e+01
3.881469507534e+01
3.893632036323e+01
3.054888422252e+01
3.205849066920e+01
3.473937217478e+01
3.478934281349e+01
3.198931960058e+01
3.055155914217e+01
3.046280503305e+01
3.107970665535e+01
3.059513632795e+01
3.054775792577e+01
3.205341352880e+01
3.472475664855e+01
3.046805309051e+01
3.108333875333e+01
3.058077707724e+01
3.051764640363e+01
3.213158364830e+01
3.468948703019e+01
3.046146865171e+01
3.108087612200e+01
3.059817279909e+01
3.059475343633e+01
3.108118809338e+01
3.046286375890e+01
3.203886418025e+01
3.105768856204e+01
3.203133990826e+01
3.107476237795e+01
3.203545680727e+01
3.107727114889e+01
3.202279044212e+01
3.103895032128e+01
4.918959079264e+01
2.981590962455e+01
2.981385349006e+01
2.980539396797e+01
2.980165638673e+01
3.856460296198e+01
3.853989836536e+01
3.849599930809e+01
3.861797545295e+01
3.033813273802e+01
3.182054975810e+01
3.446223900286e+01
3.451118021183e+01
3.175246273463e+01
3.034081439196e+01
3.025279058528e+01
3.085697629431e+01
3.038259155359e+01
3.033706265650e+01
3.181553926880e+01
3.444747211382e+01
3.025804048761e+01
3.086054172780e+01
3.036850913752e+01
3.030730244809e+01
3.189246001072e+01
3.441279522781e+01
3.025155954442e+01
3.085803901366e+01
3.038562999879e+01
3.038228997828e+01
3.085838982378e+01
3.025280056044e+01
3.179898782001e+01
3.083684712631e+01
3.179165334373e+01
3.085346189551e+01
3.179571806854e+01
3.085607099114e+01
3.178321802738e+01
3.081842004145e+01
4.861937471002e+01
2.966765645081e+01
2.966572828563e+01
2.965761043845e+01
2.965338151745e+01
3.830738969324e+01
3.828337353018e+01
3.823942347205e+01
3.836143550929e+01
3.018055182077e+01
3.163892695702e+01
3.424529105580e+01
3.429333680544e+01
3.157181205814e+01
3.018323403599e+01
3.009591355477e+01
3.068895027674e+01
3.022349388961e+01
3.017952870244e+01
3.163397676287e+01
3.423042259197e+01
3.010115620614e+01
3.069245586765e+01
3.020965441517e+01
3.015009773223e+01
3.170978067099e+01
3.419626519703e+01
3.009476822480e+01
3.068992500635e+01
3.022653026059e+01
3.022325901141e+01
3.069030768916e+01
3.009588464293e+01
3.161581077482e+01
3.067039786479e+01
3.160863874102e+01
3.068661561361e+01
3.161265509058e+01
3.068930648443e+01
3.160030847909e+01
3.065224926814e+01
4.813737448169e+01
2.955781021983e+01
2.955598526489e+01
2.954814291117e+01
2.954353643789e+01
3.810334130297e+01
3.807991626253e+01
3.803599853842e+01
3.815784487384e+01
3.006280426817e+01
3.150084351798e+01
3.407702575447e+01
3.412432635643e+01
3.143455682013e+01
3.006548149019e+01
2.997877614105e+01
3.056239869452e+01
3.010449471090e+01
3.006181990008e+01
3.149594487333e+01
3.406208923190e+01
2.998400743462e+01
3.056585300798e+01
3.009086016791e+01
3.003268038921e+01
3.157079814476e+01
3.402836387377e+01
2.997769953964e+01
3.056330250781e+01
3.010752764903e+01
3.010431355022e+01
3.056371112054e+01
2.997871705244e+01
3.147646976258e+01
3.054515583673e+01
3.146943183893e+01
3.056103945183e+01
3.147340450436e+01
3.056379937040e+01
3.146119195463e+01
3.052724491061e+01
4.774460232445e+01
2.948384180528e+01
2.948209570533e+01
2.947446575930e+01
2.946958740703e+01
3.795014958504e+01
3.792721447577e+01
3.788339721253e+01
3.800491626768e+01
2.998238892302e+01
3.140379854035e+01
3.395492477809e+01
3.400162674157e+01
3.133819652708e+01
2.998505787612e+01
2.989888534221e+01
3.047485301795e+01
3.002309413962e+01
2.998143478048e+01
3.139894295131e+01
3.393995151217e+01
2.990410194694e+01
3.047826481636e+01
3.000962633534e+01
2.995254560208e+01
3.147301192476e+01
3.390657416514e+01
2.989786059867e+01
3.047570253886e+01
3.002612220104e+01
3.002295385633e+01
3.047613100549e+01
2.989880417083e+01
3.137847963046e+01
3.045863569656e+01
3.137154822507e+01
3.047425019436e+01
3.137548332759e+01
3.047706367141e+01
3.136338431963e+01
3.044092108756e+01
4.743749982055e+01
2.944227850690e+01
2.944058759017e+01
2.943310892362e+01
2.942805729849e+01
3.784521683217e+01
3.782266769744e+01
3.777899857182e+01
3.790008303103e+01
2.993586954185e+01
3.134443668843e+01
3.387582667387e+01
3.392207621307e+01
3.127937109780e+01
2.993852839829e+01
2.985280056987e+01
3.042290849642e+01
2.997585467204e+01
2.993493712149e+01
3.133961534472e+01
3.386084377839e+01
2.985800033052e+01
3.042628696690e+01
2.996251470126e+01
2.990625280110e+01
3.141307161228e+01
3.382773072278e+01
2.985181130659e+01
3.042371987634e+01
2.997887668848e+01
2.997574274243e+01
3.042416218003e+01
2.985270490090e+01
3.131847719853e+01
3.040743072615e+01
3.131162496575e+01
3.042284228293e+01
3.131552952332e+01
3.042569338251e+01
3.130352195753e+01
3.038986970388e+01
4.721372289460e+01
2.943143643345e+01
2.942977761886e+01
2.942239091317e+01
2.941725992634e+01
3.778707526319e+01
3.776480831110e+01
3.772131991286e+01
3.784190341524e+01
2.992156212159e+01
3.132107343989e+01
3.383806996401e+01
3.388401075501e+01
3.125639593321e+01
2.992420957731e+01
2.983883517733e+01
3.040487541808e+01
2.996108808016e+01
2.992064308074e+01
3.131627749927e+01
3.382310293813e+01
2.984401659085e+01
3.040822977733e+01
2.994783706807e+01
2.989211692927e+01
3.138929280193e+01
3.379017292823e+01
2.983786553639e+01
3.040566440012e+01
2.996410313744e+01
2.996099237288e+01
3.040611470060e+01
2.983873233261e+01
3.129477281456e+01
3.038985536739e+01
3.128797260352e+01
3.040512987341e+01
3.129185367817e+01
3.040800286783e+01
3.127991519676e+01
3.037240502065e+01
4.707173177978e+01
2.945243988240e+01
2.945078974597e+01
2.944343686840e+01
2.943832280020e+01
3.777500988095e+01
3.775292551205e+01
3.770967612184e+01
3.782962058185e+01
2.994051209994e+01
3.133446172746e+01
3.384185772777e+01
3.388762551475e+01
3.127003722024e+01
2.994314773939e+01
2.985806373986e+01
3.042173459064e+01
2.997983926978e+01
2.993959765925e+01
3.132968365123e+01
3.382693433372e+01
2.986322352489e+01
3.042507341726e+01
2.996664092482e+01
2.991118773917e+01
3.140241528567e+01
3.379411001304e+01
2.985709692040e+01
3.042251684843e+01
2.998284534962e+01
2.997974715397e+01
3.042296888388e+01
2.985796089645e+01
3.130814147306e+01
3.040687241186e+01
3.130136809843e+01
3.042207473124e+01
3.130523344883e+01
3.042495074198e+01
3.129334336558e+01
3.038949343312e+01
4.700733690506e+01
2.947676343716e+01
2.947511624137e+01
2.946777665009e+01
2.946265603838e+01
3.778900457229e+01
3.776696720852e+01
3.772375974691e+01
3.784360484893e+01
2.996434370746e+01
3.135702552636e+01
3.386153052525e+01
3.390724720466e+01
3.129268137709e+01
2.996696972370e+01
2.988192761101e+01
3.044506047416e+01
3.000361174311e+01
2.996343170146e+01
3.135225403787e+01
3.384664447834e+01
2.988708541915e+01
3.044839373662e+01
2.999042517624e+01
2.993506031596e+01
3.142489894344e+01
3.381386790036e+01
2.988096535065e+01
3.044584070403e+01
3.000661888578e+01
3.000352316542e+01
3.044629492763e+01
2.988182571652e+01
3.133082445398e+01
3.043026521172e+01
3.132405270386e+01
3.044545075443e+01
3.132790717784e+01
3.044832778395e+01
3.131603461753e+01
3.041290121682e+01
4.701543151063e+01
2.955482299884e+01
2.955316905445e+01
2.954582017364e+01
2.954083366278e+01
3.784397767330e+01
3.782190203415e+01
3.777890405263e+01
3.789809950138e+01
3.004028174187e+01
3.142673273895e+01
3.392346751508e+01
3.396904830078e+01
3.136256402475e+01
3.004293046483e+01
2.995840308019e+01
3.051897072595e+01
3.007947611335e+01
3.003936475003e+01
3.142196608073e+01
3.390853360959e+01
2.996350999929e+01
3.052229440449e+01
3.006634672199e+01
3.001108105616e+01
3.149440232578e+01
3.387580405955e+01
2.995741452333e+01
3.051975317562e+01
3.008245483306e+01
3.007937435704e+01
3.052019942427e+01
2.995830216153e+01
3.140002223115e+01
3.050408476924e+01
3.139329466884e+01
3.051919950858e+01
3.139716294588e+01
3.052207196706e+01
3.138532097459e+01
3.048681169454e+01
4.702983361451e+01
2.972222508789e+01
2.972057944375e+01
2.971348775669e+01
2.970802553930e+01
3.791192347280e+01
3.789021873235e+01
3.784667261096e+01
3.796752351464e+01
3.020767726296e+01
3.158756895000e+01
3.405326664130e+01
3.409816842435e+01
3.152426875658e+01
3.021032209450e+01
3.012665953011e+01
3.068739259381e+01
3.024701627090e+01
3.020674586015e+01
3.158292818432e+01
3.403887875626e+01
3.013180725253e+01
3.069067638893e+01
3.023392429475e+01
3.017865955113e+01
3.165452520379e+01
3.400698971776e+01
3.012571891336e+01
3.068816663934e+01
3.025000580279e+01
3.024694288181e+01
3.068861352104e+01
3.012655082202e+01
3.156578284712e+01
3.067106274010e+01
3.155903328927e+01
3.068634097479e+01
3.156285785125e+01
3.068891289634e+01
3.155113594157e+01
3.065381943130e+01
4.706472881250e+01
2.983931723628e+01
2.983810068872e+01
2.983076017716e+01
2.982589824908e+01
3.813585626004e+01
3.811461681052e+01
3.807671452464e+01
3.818201780602e+01
3.030039440215e+01
3.166245611275e+01
3.417980042279e+01
3.422626055135e+01
3.159787707114e+01
3.030250369650e+01
3.021329982237e+01
3.074603856163e+01
3.033399757329e+01
3.029979872346e+01
3.165736845854e+01
3.416389891183e+01
3.021846524292e+01
3.074928319046e+01
3.032126703660e+01
3.027218762463e+01
3.172969700113e+01
3.412914513117e+01
3.021263389728e+01
3.074658055806e+01
3.033716157080e+01
3.033416004637e+01
3.074724612174e+01
3.021317918652e+01
3.161597823392e+01
3.074493964482e+01
3.160944625423e+01
3.075821557701e+01
3.161289446613e+01
3.076281515140e+01
3.160127501780e+01
3.072805825254e+01
4.705918876670e+01
2.966505114884e+01
2.966431582394e+01
2.965952098058e+01
2.965722373714e+01
3.592352732429e+01
3.588739627212e+01
3.580327493455e+01
3.602660287674e+01
2.994421156078e+01
3.078920225393e+01
3.249135999958e+01
3.251450975384e+01
3.074546149143e+01
2.994647511674e+01
2.988926615932e+01
3.020776238445e+01
2.996263001376e+01
2.994397500365e+01
3.078566118928e+01
3.247699283895e+01
2.989224540300e+01
3.020994710309e+01
2.995482220163e+01
2.992499911298e+01
3.083435523585e+01
3.246497811268e+01
2.988882828268e+01
3.020809788651e+01
2.996454648475e+01
2.996272860920e+01
3.020851723609e+01
2.988932435983e+01
3.073101219461e+01
3.021262375722e+01
3.072702534101e+01
3.021979621492e+01
3.072877079723e+01
3.022400384503e+01
3.072128010579e+01
3.020247628641e+01
4.588664514690e+01
2.959625230153e+01
2.959559953105e+01
2.959212931786e+01
2.959044245209e+01
3.212599602805e+01
3.213949415160e+01
3.219375439210e+01
3.205292045886e+01
2.980306704431e+01
3.039323754962e+01
3.137191895661e+01
3.139963675515e+01
3.036780481504e+01
2.980322686282e+01
2.976747776303e+01
3.000979934366e+01
2.982085569508e+01
2.980257670975e+01
3.039130592429e+01
3.136855378199e+01
2.976970950899e+01
3.001108447706e+01
2.981528474823e+01
2.979214420948e+01
3.041989639160e+01
3.134106258950e+01
2.976692535486e+01
3.001004978265e+01
2.982216453639e+01
2.982078475586e+01
3.001026437878e+01
2.976724811701e+01
3.039716716606e+01
3.000270537506e+01
3.039454312481e+01
3.000947818314e+01
3.039686244997e+01
3.001011033073e+01
3.039176997164e+01
2.999508480880e+01
3.066751293309e+01
2.953342582228e+01
2.953270174375e+01
2.953111738082e+01
2.952917469583e+01
3.056827707775e+01
3.058031115823e+01
3.060101284804e+01
3.055175999241e+01
2.967303008409e+01
3.002717057919e+01
3.046322696723e+01
3.047570340797e+01
3.001629965073e+01
2.967269030840e+01
2.965611079952e+01
2.982240188433e+01
2.968830134730e+01
2.967261383810e+01
3.002678471005e+01
3.046558446071e+01
2.965772599994e+01
2.982312421024e+01
2.968476984107e+01
2.966744303445e+01
3.003981499813e+01
3.045551617702e+01
2.965605600285e+01
2.982289303608e+01
2.968897404825e+01
2.968809896004e+01
2.982280921442e+01
2.965614229680e+01
3.006621643181e+01
2.980563627115e+01
3.006400643976e+01
2.981157094916e+01
3.006481551582e+01
2.980992018158e+01
3.006251283544e+01
2.980086800230e+01
3.092014292123e+01
2.948821097278e+01
2.948761287204e+01
2.948720517986e+01
2.948531683969e+01
3.003609648486e+01
3.003862061033e+01
3.004261817483e+01
3.003395361328e+01
2.957425098881e+01
2.976161877093e+01
2.995707124838e+01
2.996205289326e+01
2.975664469068e+01
2.957469806316e+01
2.956997716592e+01
2.967093792330e+01
2.958511533457e+01
2.957379713535e+01
2.976171410275e+01
2.995859116911e+01
2.957077460887e+01
2.967130511694e+01
2.958313862059e+01
2.957052905897e+01
2.976821139430e+01
2.995581214246e+01
2.956972847136e+01
2.967124027730e+01
2.958539528951e+01
2.958491693120e+01
2.967109355569e+01
2.956994396053e+01
2.979519112844e+01
2.965255818830e+01
2.979407109074e+01
2.965678845309e+01
2.979486855350e+01
2.965460098824e+01
2.979349581353e+01
2.964990702152e+01
2.999498238960e+01
2.946888221040e+01
2.946841354913e+01
2.946805500567e+01
2.946759462888e+01
2.971591110766e+01
2.971730171558e+01
2.972013624634e+01
2.971339166794e+01
2.951551936573e+01
2.960396959872e+01
2.968968630461e+01
2.969206421082e+01
2.960160801353e+01
2.951604663400e+01
2.951671577459e+01
2.957058428712e+01
2.952290936039e+01
2.951515771783e+01
2.960406932291e+01
2.969029204815e+01
2.951693999004e+01
2.957081652988e+01
2.952191601531e+01
2.951333859091e+01
2.960724561313e+01
2.968886010034e+01
2.951636885358e+01
2.957084133888e+01
2.952286458318e+01
2.952264296323e+01
2.957064122965e+01
2.951669152886e+01
2.962396493011e+01
2.955628458007e+01
2.962351123736e+01
2.955884238072e+01
2.962420435744e+01
2.955718458940e+01
2.962340463629e+01
2.955504704255e+01
2.972807566021e+01
2.960839956904e+01
2.960836614838e+01
2.960826530501e+01
2.960853305629e+01
2.959704453154e+01
2.959694361073e+01
2.959668970903e+01
2.959732435143e+01
2.960741082800e+01
2.960360190796e+01
2.959868281547e+01
2.959855365113e+01
2.960367987488e+01
2.960741244688e+01
2.960798338880e+01
2.960680778331e+01
2.960760950843e+01
2.960740120158e+01
2.960361202471e+01
2.959866482882e+01
2.960794296059e+01
2.960682252375e+01
2.960764809468e+01
2.960743987941e+01