# vtk DataFile Version 3.0
Unstructured Grid from OpenGeoSys
ASCII
DATASET UNSTRUCTURED_GRID
FIELD TimesAndCycles 2
TIME 1 1 double
3.600000000000e+03
CYLCE 1 1 long
1
POINTS 1394 double
0.000000000000e+00 0.000000000000e+00 0.000000000000e+00
5.000000000000e+00 0.000000000000e+00 0.000000000000e+00
5.000000000000e+00 5.000000000000e+00 0.000000000000e+00
0.000000000000e+00 5.000000000000e+00 0.000000000000e+00
2.244234909000e+00 2.244234909000e+00 0.000000000000e+00
2.755765091000e+00 2.244234909000e+00 0.000000000000e+00
2.755765091000e+00 2.755765091000e+00 0.000000000000e+00
2.244234909000e+00 2.755765091000e+00 0.000000000000e+00
7.141316008320e-01 7.141316008320e-01 0.000000000000e+00
1.314642334730e+00 1.314642334730e+00 0.000000000000e+00
1.819609643610e+00 1.819609643610e+00 0.000000000000e+00
1.819609643610e+00 3.180390356390e+00 0.000000000000e+00
1.314642334740e+00 3.685357665260e+00 0.000000000000e+00
7.141316008360e-01 4.285868399160e+00 0.000000000000e+00
0.000000000000e+00 3.750000000000e+00 0.000000000000e+00
0.000000000000e+00 2.500000000000e+00 0.000000000000e+00
0.000000000000e+00 1.250000000000e+00 0.000000000000e+00
4.285868399170e+00 7.141316008320e-01 0.000000000000e+00
3.685357665270e+00 1.314642334730e+00 0.000000000000e+00
3.180390356390e+00 1.819609643610e+00 0.000000000000e+00
1.250000000000e+00 0.000000000000e+00 0.000000000000e+00
2.500000000000e+00 0.000000000000e+00 0.000000000000e+00
3.750000000000e+00 0.000000000000e+00 0.000000000000e+00
4.285868399170e+00 4.285868399170e+00 0.000000000000e+00
3.685357665270e+00 3.685357665270e+00 0.000000000000e+00
3.180390356390e+00 3.180390356390e+00 0.000000000000e+00
5.000000000000e+00 1.250000000000e+00 0.000000000000e+00
5.000000000000e+00 2.500000000000e+00 0.000000000000e+00
5.000000000000e+00 3.750000000000e+00 0.000000000000e+00
3.750000000000e+00 5.000000000000e+00 0.000000000000e+00
2.500000000000e+00 5.000000000000e+00 0.000000000000e+00
1.250000000000e+00 5.000000000000e+00 0.000000000000e+00
9.560744151940e-01 2.677827143250e+00 0.000000000000e+00
6.659597640160e-01 1.438876720610e+00 0.000000000000e+00
2.309219871940e+00 9.522638293400e-01 0.000000000000e+00
3.458157207860e+00 6.354750772000e-01 0.000000000000e+00
4.043925584810e+00 2.322172856750e+00 0.000000000000e+00
4.334040235980e+00 3.561123279390e+00 0.000000000000e+00
2.318530875810e+00 4.048536535600e+00 0.000000000000e+00
3.552396921680e+00 4.370927842320e+00 0.000000000000e+00
2.500000000000e+00 2.500000000000e+00 0.000000000000e+00
0.000000000000e+00 0.000000000000e+00 -5.000000000000e-01
5.000000000000e+00 0.000000000000e+00 -5.000000000000e-01
5.000000000000e+00 5.000000000000e+00 -5.000000000000e-01
0.000000000000e+00 5.000000000000e+00 -5.000000000000e-01
2.244234909000e+00 2.244234909000e+00 -5.000000000000e-01
2.755765091000e+00 2.244234909000e+00 -5.000000000000e-01
2.755765091000e+00 2.755765091000e+00 -5.000000000000e-01
2.244234909000e+00 2.755765091000e+00 -5.000000000000e-01
7.141316008320e-01 7.141316008320e-01 -5.000000000000e-01
1.314642334730e+00 1.314642334730e+00 -5.000000000000e-01
1.819609643610e+00 1.819609643610e+00 -5.000000000000e-01
1.819609643610e+00 3.180390356390e+00 -5.000000000000e-01
1.314642334740e+00 3.685357665260e+00 -5.000000000000e-01
7.141316008360e-01 4.285868399160e+00 -5.000000000000e-01
0.000000000000e+00 3.750000000000e+00 -5.000000000000e-01
0.000000000000e+00 2.500000000000e+00 -5.000000000000e-01
0.000000000000e+00 1.250000000000e+00 -5.000000000000e-01
4.285868399170e+00 7.141316008320e-01 -5.000000000000e-01
3.685357665270e+00 1.314642334730e+00 -5.000000000000e-01
3.180390356390e+00 1.819609643610e+00 -5.000000000000e-01
1.250000000000e+00 0.000000000000e+00 -5.000000000000e-01
2.500000000000e+00 0.000000000000e+00 -5.000000000000e-01
3.750000000000e+00 0.000000000000e+00 -5.000000000000e-01
4.285868399170e+00 4.285868399170e+00 -5.000000000000e-01
3.685357665270e+00 3.685357665270e+00 -5.000000000000e-01
3.180390356390e+00 3.180390356390e+00 -5.000000000000e-01
5.000000000000e+00 1.250000000000e+00 -5.000000000000e-01
5.000000000000e+00 2.500000000000e+00 -5.000000000000e-01
5.000000000000e+00 3.750000000000e+00 -5.000000000000e-01
3.750000000000e+00 5.000000000000e+00 -5.000000000000e-01
2.500000000000e+00 5.000000000000e+00 -5.000000000000e-01
1.250000000000e+00 5.000000000000e+00 -5.000000000000e-01
9.560744151940e-01 2.677827143250e+00 -5.000000000000e-01
6.659597640160e-01 1.438876720610e+00 -5.000000000000e-01
2.309219871940e+00 9.522638293400e-01 -5.000000000000e-01
3.458157207860e+00 6.354750772000e-01 -5.000000000000e-01
4.043925584810e+00 2.322172856750e+00 -5.000000000000e-01
4.334040235980e+00 3.561123279390e+00 -5.000000000000e-01
2.318530875810e+00 4.048536535600e+00 -5.000000000000e-01
3.552396921680e+00 4.370927842320e+00 -5.000000000000e-01
2.500000000000e+00 2.500000000000e+00 -5.000000000000e-01
0.000000000000e+00 0.000000000000e+00 -1.000000000000e+00
5.000000000000e+00 0.000000000000e+00 -1.000000000000e+00
5.000000000000e+00 5.000000000000e+00 -1.000000000000e+00
0.000000000000e+00 5.000000000000e+00 -1.000000000000e+00
2.244234909000e+00 2.244234909000e+00 -1.000000000000e+00
2.755765091000e+00 2.244234909000e+00 -1.000000000000e+00
2.755765091000e+00 2.755765091000e+00 -1.000000000000e+00
2.244234909000e+00 2.755765091000e+00 -1.000000000000e+00
7.141316008320e-01 7.141316008320e-01 -1.000000000000e+00
1.314642334730e+00 1.314642334730e+00 -1.000000000000e+00
1.819609643610e+00 1.819609643610e+00 -1.000000000000e+00
1.819609643610e+00 3.180390356390e+00 -1.000000000000e+00
1.314642334740e+00 3.685357665260e+00 -1.000000000000e+00
7.141316008360e-01 4.285868399160e+00 -1.000000000000e+00
0.000000000000e+00 3.750000000000e+00 -1.000000000000e+00
0.000000000000e+00 2.500000000000e+00 -1.000000000000e+00
0.000000000000e+00 1.250000000000e+00 -1.000000000000e+00
4.285868399170e+00 7.141316008320e-01 -1.000000000000e+00
3.685357665270e+00 1.314642334730e+00 -1.000000000000e+00
3.180390356390e+00 1.819609643610e+00 -1.000000000000e+00
1.250000000000e+00 0.000000000000e+00 -1.000000000000e+00
2.500000000000e+00 0.000000000000e+00 -1.000000000000e+00
3.750000000000e+00 0.000000000000e+00 -1.000000000000e+00
4.285868399170e+00 4.285868399170e+00 -1.000000000000e+00
3.685357665270e+00 3.685357665270e+00 -1.000000000000e+00
3.180390356390e+00 3.180390356390e+00 -1.000000000000e+00
5.000000000000e+00 1.250000000000e+00 -1.000000000000e+00
5.000000000000e+00 2.500000000000e+00 -1.000000000000e+00
5.000000000000e+00 3.750000000000e+00 -1.000000000000e+00
3.750000000000e+00 5.000000000000e+00 -1.000000000000e+00
2.500000000000e+00 5.000000000000e+00 -1.000000000000e+00
1.250000000000e+00 5.000000000000e+00 -1.000000000000e+00
9.560744151940e-01 2.677827143250e+00 -1.000000000000e+00
6.659597640160e-01 1.438876720610e+00 -1.000000000000e+00
2.309219871940e+00 9.522638293400e-01 -1.000000000000e+00
3.458157207860e+00 6.354750772000e-01 -1.000000000000e+00
4.043925584810e+00 2.322172856750e+00 -1.000000000000e+00
4.334040235980e+00 3.561123279390e+00 -1.000000000000e+00
2.318530875810e+00 4.048536535600e+00 -1.000000000000e+00
3.552396921680e+00 4.370927842320e+00 -1.000000000000e+00
2.500000000000e+00 2.500000000000e+00 -1.000000000000e+00
0.000000000000e+00 0.000000000000e+00 -3.000000000000e+00
5.000000000000e+00 0.000000000000e+00 -3.000000000000e+00
5.000000000000e+00 5.000000000000e+00 -3.000000000000e+00
0.000000000000e+00 5.000000000000e+00 -3.000000000000e+00
2.244234909000e+00 2.244234909000e+00 -3.000000000000e+00
2.755765091000e+00 2.244234909000e+00 -3.000000000000e+00
2.755765091000e+00 2.755765091000e+00 -3.000000000000e+00
2.244234909000e+00 2.755765091000e+00 -3.000000000000e+00
7.141316008320e-01 7.141316008320e-01 -3.000000000000e+00
1.314642334730e+00 1.314642334730e+00 -3.000000000000e+00
1.819609643610e+00 1.819609643610e+00 -3.000000000000e+00
1.819609643610e+00 3.180390356390e+00 -3.000000000000e+00
1.314642334740e+00 3.685357665260e+00 -3.000000000000e+00
7.141316008360e-01 4.285868399160e+00 -3.000000000000e+00
0.000000000000e+00 3.750000000000e+00 -3.000000000000e+00
0.000000000000e+00 2.500000000000e+00 -3.000000000000e+00
0.000000000000e+00 1.250000000000e+00 -3.000000000000e+00
4.285868399170e+00 7.141316008320e-01 -3.000000000000e+00
3.685357665270e+00 1.314642334730e+00 -3.000000000000e+00
3.180390356390e+00 1.819609643610e+00 -3.000000000000e+00
1.250000000000e+00 0.000000000000e+00 -3.000000000000e+00
2.500000000000e+00 0.000000000000e+00 -3.000000000000e+00
3.750000000000e+00 0.000000000000e+00 -3.000000000000e+00
4.285868399170e+00 4.285868399170e+00 -3.000000000000e+00
3.685357665270e+00 3.685357665270e+00 -3.000000000000e+00
3.180390356390e+00 3.180390356390e+00 -3.000000000000e+00
5.000000000000e+00 1.250000000000e+00 -3.000000000000e+00
5.000000000000e+00 2.500000000000e+00 -3.000000000000e+00
5.000000000000e+00 3.750000000000e+00 -3.000000000000e+00
3.750000000000e+00 5.000000000000e+00 -3.000000000000e+00
2.500000000000e+00 5.000000000000e+00 -3.000000000000e+00
1.250000000000e+00 5.000000000000e+00 -3.000000000000e+00
9.560744151940e-01 2.677827143250e+00 -3.000000000000e+00
6.659597640160e-01 1.438876720610e+00 -3.000000000000e+00
2.309219871940e+00 9.522638293400e-01 -3.000000000000e+00
3.458157207860e+00 6.354750772000e-01 -3.000000000000e+00
4.043925584810e+00 2.322172856750e+00 -3.000000000000e+00
4.334040235980e+00 3.561123279390e+00 -3.000000000000e+00
2.318530875810e+00 4.048536535600e+00 -3.000000000000e+00
3.552396921680e+00 4.370927842320e+00 -3.000000000000e+00
2.500000000000e+00 2.500000000000e+00 -3.000000000000e+00
0.000000000000e+00 0.000000000000e+00 -5.000000000000e+00
5.000000000000e+00 0.000000000000e+00 -5.000000000000e+00
5.000000000000e+00 5.000000000000e+00 -5.000000000000e+00
0.000000000000e+00 5.000000000000e+00 -5.000000000000e+00
2.244234909000e+00 2.244234909000e+00 -5.000000000000e+00
[...]
POINT_DATA 1394
SCALARS TEMPERATURE1 double 1
LOOKUP_TABLE default
1.000000000000e+01
1.000000000000e+01
1.000000000000e+01
1.000000000000e+01
1.000000000000e+01
1.000000000000e+01
1.000000000000e+01
1.000000000000e+01
1.000000000000e+01
1.000000000000e+01
1.000000000000e+01
1.000000000000e+01
1.000000000000e+01
1.000000000000e+01
1.000000000000e+01
1.000000000000e+01
1.000000000000e+01
1.000000000000e+01
1.000000000000e+01
1.000000000000e+01
1.000000000000e+01
1.000000000000e+01
1.000000000000e+01
1.000000000000e+01
1.000000000000e+01
1.000000000000e+01
1.000000000000e+01
1.000000000000e+01
1.000000000000e+01
1.000000000000e+01
1.000000000000e+01
1.000000000000e+01
1.000000000000e+01
1.000000000000e+01
1.000000000000e+01
1.000000000000e+01
1.000000000000e+01
1.000000000000e+01
1.000000000000e+01
1.000000000000e+01
1.000000000000e+01
2.019603296512e+01
2.019442463231e+01
2.019595173121e+01
2.019440853873e+01
1.980138816521e+01
1.979732723986e+01
1.977677959018e+01
1.983204597675e+01
2.026327718860e+01
2.028021951452e+01
2.007282768054e+01
2.006658716747e+01
2.028550968605e+01
2.026597583451e+01
2.028749157190e+01
2.036261749393e+01
2.028115859290e+01
2.026195639155e+01
2.028161123406e+01
2.007667145461e+01
2.028667996741e+01
2.036236980210e+01
2.028013854571e+01
2.026091401376e+01
2.027865540215e+01
2.008705995509e+01
2.028587372594e+01
2.036317594018e+01
2.028061166916e+01
2.028059873582e+01
2.036272435775e+01
2.028755714568e+01
2.035609377068e+01
2.031148625587e+01
2.035554432497e+01
2.031743493961e+01
2.035720197582e+01
2.031104316889e+01
2.035714588972e+01
2.031112512426e+01
2.041193980740e+01
3.014279401579e+01
3.014052180149e+01
3.014371121939e+01
3.014730633803e+01
2.671420140033e+01
2.672641161949e+01
2.674655624108e+01
2.669283754111e+01
3.007702532198e+01
2.964077182683e+01
2.857621316431e+01
2.855818672565e+01
2.966751000540e+01
3.008049839705e+01
3.014277326742e+01
3.006202195156e+01
3.009289660556e+01
3.007511967397e+01
2.964379529190e+01
2.858499510170e+01
3.013895975049e+01
3.006058056884e+01
3.009567505475e+01
3.008306659634e+01
2.961772812245e+01
2.860116700062e+01
3.013967335861e+01
3.006274347615e+01
3.009073509089e+01
3.009174122145e+01
3.006185140481e+01
3.014288533255e+01
2.974557866840e+01
2.999043007239e+01
2.974735756200e+01
2.999378861296e+01
2.974956206149e+01
2.998410388972e+01
2.975295042779e+01
2.999610982782e+01
2.231904409358e+01
3.524346773650e+01
3.524155974503e+01
3.524724598322e+01
3.525190565787e+01
2.963048291142e+01
2.964715726831e+01
2.967295247960e+01
2.960286016841e+01
3.504255681544e+01
3.421818089091e+01
3.247293994108e+01
3.244149216525e+01
3.426258520779e+01
3.504582523755e+01
3.513161943286e+01
3.489369175187e+01
3.504696806185e+01
3.504081187934e+01
3.422244121762e+01
3.248504740934e+01
3.512616734780e+01
3.489118242329e+01
3.505331293991e+01
3.505639360436e+01
3.417680433993e+01
3.251138889931e+01
3.512849984971e+01
3.489407531272e+01
3.504407025516e+01
3.504596300446e+01
3.489320511283e+01
3.513174899238e+01
3.432743997717e+01
3.482611665970e+01
3.433107107315e+01
3.482514915987e+01
3.433238786762e+01
3.481488652697e+01
3.433906139346e+01
3.483677483554e+01
2.304760775693e+01
3.820495292698e+01
3.820331838903e+01
3.821051943128e+01
3.821497162822e+01
3.147157672233e+01
3.148994270897e+01
3.151775508741e+01
3.144133742954e+01
3.793634229227e+01
3.691194133152e+01
3.481161543669e+01
3.477298488438e+01
3.696553463543e+01
3.793958908631e+01
3.803786987177e+01
3.772070258373e+01
3.793490265065e+01
3.793468392903e+01
3.691688358750e+01
3.482539959533e+01
3.803169598764e+01
3.771768030021e+01
3.794309538385e+01
3.795397466560e+01
3.686104925985e+01
3.485726307121e+01
3.803483727053e+01
3.772088863204e+01
3.793162192831e+01
3.793399701061e+01
3.772000584795e+01
3.803795929044e+01
3.702515203107e+01
3.765411816736e+01
3.702979346948e+01
3.765107566324e+01
3.703070994911e+01
3.764026513633e+01
3.703900209322e+01
3.766726146014e+01
2.378168761731e+01
3.965669837190e+01
3.965522821658e+01
3.966307199811e+01
3.966736363501e+01
3.241454188851e+01
3.243392457479e+01
3.246299318569e+01
3.238287346126e+01
3.935723271086e+01
3.824351979215e+01
3.598431741251e+01
3.594250494373e+01
3.830121514538e+01
3.936037627313e+01
3.946395544372e+01
3.911081733660e+01
3.935297236996e+01
3.935564568624e+01
3.824876907297e+01
3.599890690684e+01
3.945752242689e+01
3.910759076689e+01
3.936201609922e+01
3.937660040397e+01
3.818830011369e+01
3.603314485935e+01
3.946104066194e+01
3.911091684678e+01
3.934951632293e+01
3.935210235509e+01
3.911001288053e+01
3.946402160752e+01
3.835822150482e+01
3.904525243813e+01
3.836332726098e+01
3.904124742782e+01
3.836401528832e+01
3.903021674520e+01
3.837302754986e+01
3.905947924644e+01
2.420905313687e+01
4.028443408782e+01
4.028304808749e+01
4.029113114218e+01
4.029532658719e+01
3.285194143549e+01
3.287158841762e+01
3.290082260258e+01
3.282009385512e+01
3.997251748201e+01
3.882389832450e+01
3.650433197865e+01
3.646125266637e+01
3.888314582911e+01
3.997559371259e+01
4.008107220664e+01
3.971342554642e+01
3.996700637725e+01
3.997097338923e+01
3.882926245776e+01
3.651920022911e+01
4.007456353542e+01
3.971013089453e+01
3.997639505940e+01
3.999255738002e+01
3.876699977737e+01
3.655438564272e+01
4.007823609729e+01
3.971348903269e+01
3.996348193228e+01
3.996614851265e+01
3.971257166376e+01
4.008112661319e+01
3.893865337174e+01
3.964862478218e+01
3.894395153405e+01
3.964420994240e+01
3.894453015567e+01
3.963312449381e+01
3.895381455896e+01
3.966326578152e+01
2.446800052288e+01
4.053517106851e+01
4.053382104463e+01
4.054198680072e+01
4.054612399135e+01
3.303328166930e+01
3.305309783843e+01
3.308256831627e+01
3.300116014883e+01
4.021890463721e+01
3.905820992562e+01
3.671733778474e+01
3.667383191581e+01
3.911800335711e+01
4.022194381200e+01
4.032804548295e+01
3.995535049836e+01
4.021293231702e+01
4.021737944692e+01
3.906361631190e+01
3.673231843496e+01
4.032152265962e+01
3.995203622849e+01
4.022244408824e+01
4.023918130160e+01
3.900071171605e+01
3.676780078490e+01
4.032524941729e+01
3.995540135591e+01
4.020938401336e+01
4.021207739254e+01
3.995447631409e+01
4.032809370116e+01
3.917303627236e+01
3.989087141067e+01
3.917840485671e+01
3.988631446641e+01
3.917894132868e+01
3.987520642912e+01
3.918831747512e+01
3.990564914568e+01
2.457741873980e+01
4.039274592003e+01
4.039140495173e+01
4.039923899534e+01
4.040327888906e+01
3.319678685457e+01
3.321586126842e+01
3.324372455705e+01
3.316684721508e+01
4.009090072679e+01
3.897974563051e+01
3.673390314336e+01
3.669214069086e+01
3.903713333940e+01
4.009385447180e+01
4.019581636281e+01
3.984013108171e+01
4.008552879177e+01
4.008941201289e+01
3.898494205418e+01
3.674836417803e+01
4.018952822834e+01
3.983693969776e+01
4.009460893048e+01
4.011032927931e+01
3.892463997104e+01
3.678254356470e+01
4.019308548828e+01
3.984019506411e+01
4.008212557545e+01
4.008470397111e+01
3.983931082089e+01
4.019587499421e+01
3.909108093993e+01
3.977755309144e+01
3.909618795965e+01
3.977327979601e+01
3.909671844180e+01
3.976256481941e+01
3.910572432429e+01
3.979171709077e+01
2.509217937792e+01
4.012289526096e+01
4.012154163949e+01
4.012903516964e+01
4.013301411622e+01
3.323547856660e+01
3.325386487538e+01
3.328036709130e+01
3.320736586732e+01
3.983644204365e+01
3.877625742836e+01
3.662667823130e+01
3.658672821566e+01
3.883120282562e+01
3.983934130464e+01
3.993728992729e+01
3.959971194569e+01
3.983188680205e+01
3.983497353145e+01
3.878124515734e+01
3.664062132591e+01
3.993121959318e+01
3.959664118934e+01
3.984051240949e+01
3.985497951224e+01
3.872361528595e+01
3.667343897071e+01
3.993459346182e+01
3.959979459461e+01
3.982862555679e+01
3.983108624278e+01
3.959895013062e+01
3.993735995567e+01
3.888456753383e+01
3.953858118830e+01
3.888940347076e+01
3.953464936126e+01
3.888995757659e+01
3.952428637950e+01
3.889857966742e+01
3.955211897852e+01
2.547520157370e+01
3.993296279520e+01
3.993160347386e+01
3.993883010355e+01
3.994275449079e+01
3.328736033060e+01
3.330519752403e+01
3.333060580004e+01
3.326071184534e+01
3.965842554990e+01
3.863800298549e+01
3.656381779751e+01
3.652528117471e+01
3.869103526177e+01
3.966127629783e+01
3.975605430955e+01
3.943250036519e+01
3.965447443370e+01
3.965697589335e+01
3.864282665324e+01
3.657735223378e+01
3.975015857369e+01
3.942952533606e+01
3.966274766909e+01
3.967626949632e+01
3.858728329327e+01
3.660910584852e+01
3.975339088166e+01
3.943259677405e+01
3.965132468286e+01
3.965369337441e+01
3.943178314080e+01
3.975613279763e+01
3.874384965037e+01
3.937258254052e+01
3.874847544280e+01
3.936890906275e+01
3.874904350700e+01
3.935882860460e+01
3.875736554396e+01
3.938563039141e+01
2.579843387356e+01
3.977808696113e+01
3.977672242881e+01
3.978372977633e+01
3.978760935670e+01
3.333056430661e+01
3.334795540384e+01
3.337248781704e+01
3.330508411503e+01
3.951335865445e+01
3.852556950838e+01
3.651317846343e+01
3.647580321010e+01
3.857703290690e+01
3.951617057432e+01
3.960835852815e+01
3.929634625146e+01
3.950991258893e+01
3.951192388484e+01
3.853025906922e+01
3.652637839164e+01
3.960260586744e+01
3.929344999158e+01
3.951789647010e+01
3.953063182820e+01
3.847642713585e+01
3.655725595094e+01
3.960572158503e+01
3.929645424767e+01
3.950685374420e+01
3.950914691073e+01
3.929566539074e+01
3.960844375630e+01
3.862942436090e+01
3.923739855563e+01
3.863387815411e+01
3.923393995641e+01
3.863445911968e+01
3.922408789149e+01
3.864253417770e+01
3.925004398272e+01
2.606307262806e+01
3.966286942079e+01
3.966150122454e+01
3.966833950138e+01
3.967218320562e+01
3.336771049136e+01
3.338475906137e+01
3.340862872620e+01
3.334310964830e+01
3.940569592940e+01
3.844302090606e+01
3.647817888693e+01
3.644169847226e+01
3.849327639248e+01
3.940847773095e+01
3.949867446178e+01
3.919555044140e+01
3.940263956487e+01
3.940427270949e+01
3.844760742865e+01
3.649112111294e+01
3.949303255022e+01
3.919271522391e+01
3.941040102868e+01
3.942252887622e+01
3.839509229134e+01
3.652132192465e+01
3.949605848548e+01
3.919566741039e+01
3.939965038780e+01
3.940188539279e+01
3.919489721392e+01
3.949876463441e+01
3.854534664294e+01
3.913734511847e+01
3.854966867235e+01
3.913405258687e+01
3.855025991896e+01
3.912437509052e+01
3.855814422391e+01
3.914968035767e+01
2.627010468976e+01
3.958440547052e+01
3.958303500964e+01
3.958975245437e+01
3.959356882385e+01
3.339782501389e+01
3.341463056350e+01
3.343804100143e+01
3.337382852337e+01
3.933263070072e+01
3.838787553503e+01
3.645694115321e+01
3.642110036448e+01
3.843726893708e+01
3.933539079196e+01
3.942416929887e+01
3.912739579286e+01
3.932985381195e+01
3.933121579100e+01
3.839238877525e+01
3.646969954743e+01
3.941860710024e+01
3.912460455202e+01
3.933745682853e+01
3.934914854072e+01
3.834081261657e+01
3.649941477958e+01
3.942156888599e+01
3.912751921995e+01
3.932691405714e+01
3.932910752251e+01
3.912676191348e+01
3.942426273196e+01
3.848911751305e+01
3.906971449076e+01
3.849334614152e+01
3.906654136645e+01
3.849394513850e+01
3.905698695927e+01
3.850169263590e+01
3.908182785549e+01
2.642069271118e+01
3.953901111372e+01
3.953763915101e+01
3.954428149231e+01
3.954807936545e+01
3.341965532384e+01
3.343631188938e+01
3.345945764092e+01
3.339599962382e+01
3.929061623313e+01
3.835700077805e+01
3.644708689765e+01
3.641164524224e+01
3.840585880125e+01
3.929336354762e+01
3.938126958328e+01
3.908846892775e+01
3.928801952307e+01
3.928920613599e+01
3.836146890361e+01
3.645973132103e+01
3.937575716301e+01
3.908570535864e+01
3.929552406627e+01
3.930693644143e+01
3.831047574260e+01
3.648914148364e+01
3.937867873096e+01
3.908859652906e+01
3.928511000813e+01
3.928727764360e+01
3.908784672083e+01
3.938136473180e+01
3.845759125110e+01
3.903109389449e+01
3.846176248541e+01
3.902799729649e+01
3.846236755005e+01
3.901851636751e+01
3.847002911334e+01
3.904306882816e+01
2.651602786637e+01
3.954795620718e+01
3.954658739481e+01
3.955321144767e+01
3.955699575874e+01
3.344435192920e+01
3.346097387836e+01
3.348407660933e+01
3.342074063954e+01
3.930030756974e+01
3.836928411073e+01
3.646435390735e+01
3.642900747453e+01
3.841801374434e+01
3.930304716543e+01
3.939072933692e+01
3.909880897706e+01
3.929773415626e+01
3.929890076590e+01
3.837374169794e+01
3.647697071989e+01
3.938523325237e+01
3.909605371285e+01
3.930521775048e+01
3.931658137969e+01
3.832288247033e+01
3.650630240028e+01
3.938814622116e+01
3.909893713056e+01
3.929483170004e+01
3.929699309196e+01
3.909818805143e+01
3.939082400484e+01
3.846968337588e+01
3.904154706159e+01
3.847384332870e+01
3.903846533022e+01
3.847444768054e+01
3.902900310850e+01
3.848208751531e+01
3.905348753852e+01
2.655735988125e+01
3.952305749881e+01
3.952168585225e+01
3.952829479305e+01
3.953208732915e+01
3.342841830614e+01
3.344500978116e+01
3.346810177040e+01
3.340478881232e+01
3.927590170403e+01
3.834623073099e+01
3.644399391137e+01
3.640870113119e+01
3.839488635752e+01
3.927864479753e+01
3.936626584364e+01
3.907490589952e+01
3.927338383512e+01
3.927449340324e+01
3.835068298307e+01
3.645658774137e+01
3.936077384327e+01
3.907215618940e+01
3.928085532462e+01
3.929214122209e+01
3.829990284790e+01
3.648587227198e+01
3.936368079827e+01
3.907503678900e+01
3.927048141011e+01
3.927263945996e+01
3.907428542262e+01
3.936636024309e+01
3.844656319367e+01
3.901760038780e+01
3.845071947804e+01
3.901453553928e+01
3.845133077011e+01
3.900507328718e+01
3.845895512355e+01
3.902952385372e+01
2.654842154194e+01
3.936386153477e+01
3.936247682871e+01
3.936901439579e+01
3.937277394870e+01
3.332501775019e+01
3.334156142636e+01
3.336447403697e+01
3.330172183723e+01
3.912058453258e+01
3.820206503017e+01
3.631771994826e+01
3.628277970434e+01
3.825026298705e+01
3.912331539607e+01
3.921023308729e+01
3.892345802097e+01
3.911838748238e+01
3.911917331863e+01
3.820649033690e+01
3.633027649523e+01
3.920479560039e+01
3.892073800245e+01
3.912575679360e+01
3.913662355128e+01
3.815621995064e+01
3.635931846484e+01
3.920765716665e+01
3.892360128033e+01
3.911550857586e+01
3.911763737599e+01
3.892284752206e+01
3.921032932509e+01
3.830259250106e+01
3.886605494770e+01
3.830668967703e+01
3.886312168349e+01
3.830731328789e+01
3.885366951044e+01
3.831485228660e+01
3.887783125921e+01
2.650889362125e+01
3.879777298921e+01
3.879635810076e+01
3.880248037762e+01
3.880649584055e+01
3.299329259942e+01
3.300929271429e+01
3.303204375028e+01
3.296973052562e+01
3.856534492839e+01
3.768230127802e+01
3.587145299325e+01
3.583799666336e+01
3.772853431779e+01
3.856804669143e+01
3.865252272091e+01
3.837835166637e+01
3.856400807191e+01
3.856394037176e+01
3.768655717173e+01
3.588344780303e+01
3.864721697700e+01
3.837576107806e+01
3.857107850507e+01
3.858065194473e+01
3.763834302155e+01
3.591116400510e+01
3.864995120920e+01
3.837854098985e+01
3.856116795193e+01
3.856320688633e+01
3.837776464530e+01
3.865262404486e+01
3.777953038929e+01
3.832155590517e+01
3.778349953783e+01
3.831888173934e+01
3.778419939227e+01
3.830964596949e+01
3.779139237782e+01
3.833289760820e+01
2.638097632047e+01
3.745809834891e+01
3.745666334246e+01
3.746251958000e+01
3.746538214960e+01
3.207482473828e+01
3.208948002569e+01
3.210767395297e+01
3.205796465584e+01
3.725836454655e+01
3.646014206283e+01
3.477269013771e+01
3.474118157169e+01
3.650321751375e+01
3.726105363356e+01
3.734089379573e+01
3.710489863156e+01
3.725979218950e+01
3.725694024722e+01
3.646429428381e+01
3.478455569208e+01
3.733615629868e+01
3.710257053811e+01
3.726609373355e+01
3.727192095884e+01
3.641962374182e+01
3.481142572219e+01
3.733852101424e+01
3.710516528960e+01
3.725712224922e+01
3.725895887484e+01
3.710433536339e+01
3.734096309024e+01
3.656277885053e+01
3.704534469843e+01
3.656632016133e+01
3.704396461845e+01
3.656712401151e+01
3.703439528189e+01
3.657363141887e+01
3.705546545525e+01
2.610735672063e+01
3.530035529649e+01
3.529940861269e+01
3.530262214338e+01
3.530424638097e+01
3.186626351233e+01
3.188616018764e+01
3.192557722630e+01
3.182205449878e+01
3.520083115797e+01
3.477892088572e+01
3.380662921567e+01
3.379262718269e+01
3.480385324295e+01
3.520195509762e+01
3.524637371504e+01
3.513067981168e+01
3.520395328399e+01
3.519990689905e+01
3.478134567898e+01
3.381535198305e+01
3.524377972818e+01
3.512929253669e+01
3.520714855103e+01
3.520889321205e+01
3.475573233596e+01
3.382517636232e+01
3.524489474491e+01
3.513086648100e+01
3.520253641464e+01
3.520348908271e+01
3.513044113430e+01
3.524638937554e+01
3.485117547261e+01
3.509381149797e+01
3.485291418479e+01
3.509385093369e+01
3.485363063743e+01
3.508793136156e+01
3.485729774679e+01
3.509909060387e+01
2.644769986881e+01
3.469223564481e+01
3.469148221242e+01
3.469351899444e+01
3.469526399213e+01
3.339965453454e+01
3.339179406506e+01
3.336172461370e+01
3.344001910986e+01
3.462568711434e+01
3.435446338691e+01
3.382890711171e+01
3.381433038191e+01
3.436798691176e+01
3.462740733258e+01
3.465555448102e+01
3.457493082750e+01
3.462667729733e+01
3.462511002786e+01
3.435578489227e+01
3.383121281404e+01
3.465354647493e+01
3.457408703526e+01
3.462870995857e+01
3.462950793830e+01
3.434223223905e+01
3.384709883083e+01
3.465440402854e+01
3.457508244275e+01
3.462575443812e+01
3.462640925454e+01
3.457485659276e+01
3.465572883874e+01
3.438151101414e+01
3.455310720080e+01
3.438252422437e+01
3.455252730155e+01
3.438264671803e+01
3.454959525807e+01
3.438492278195e+01
3.455683221119e+01
3.418444221125e+01
3.408332364560e+01
3.408282071324e+01
3.408347480801e+01
3.408580221540e+01
3.364711027495e+01
3.364080823734e+01
3.363003761902e+01
3.365602890574e+01
3.404479777834e+01
3.390373616011e+01
3.369930825963e+01
3.369368890342e+01
3.390872903028e+01
3.404621319758e+01
3.406057985426e+01
3.401245865866e+01
3.404492879767e+01
3.404439656840e+01
3.390406537246e+01
3.369838357040e+01
3.405907006121e+01
3.401197738752e+01
3.404596697828e+01
3.404623457243e+01
3.389922133542e+01
3.370386870425e+01
3.405946933767e+01
3.401246007361e+01
3.404442567189e+01
3.404478998164e+01
3.401243703155e+01
3.406065053852e+01
3.390278434943e+01
3.400326012916e+01
3.390353741029e+01
3.400236062351e+01
3.390407757559e+01
3.400157021400e+01
3.390493671763e+01
3.400542688486e+01
3.345620815198e+01
3.348962613037e+01
3.348925882013e+01
3.348920750788e+01
3.349146923357e+01
3.330885768604e+01
3.330795336597e+01
3.330673608200e+01
3.330945209775e+01
3.347134494394e+01
3.341334319910e+01
3.334273334344e+01
3.334125605298e+01
3.341509991981e+01
3.347195683147e+01
3.347786634661e+01
3.345551513434e+01
3.347176675880e+01
3.347113076345e+01
3.341333646474e+01
3.334219231589e+01
3.347693615158e+01
3.345524339708e+01
3.347212939663e+01
3.347222342333e+01
3.341177073039e+01
3.334338743289e+01
3.347712407037e+01
3.345556356678e+01
3.347153542223e+01
3.347169758157e+01
3.345561436288e+01
3.347797469214e+01
3.340922848156e+01
3.345262372620e+01
3.340943436510e+01
3.345200967662e+01
3.340969140332e+01
3.345210180367e+01
3.341015797735e+01
3.345371649514e+01
3.333378244570e+01
3.292644645837e+01
3.292619065013e+01
3.292619906826e+01
3.292739929246e+01
3.288095198388e+01
3.288058050208e+01
3.287983434963e+01
3.288182097585e+01
3.292154260941e+01
3.290600402641e+01
3.288730931205e+01
3.288698017083e+01
3.290657711800e+01
3.292187930440e+01
3.292371841136e+01
3.291784600535e+01
3.292202316805e+01
3.292140289939e+01
3.290596880347e+01
3.288718470265e+01
3.292321016688e+01
3.291764622622e+01
3.292203102182e+01
3.292193980828e+01
3.290573010138e+01
3.288768948635e+01
3.292324401497e+01
3.291785082198e+01
3.292201220729e+01
3.292206164698e+01
3.291796397438e+01
3.292380487436e+01
3.290502434017e+01
3.291663590776e+01
3.290495190129e+01
3.291642356973e+01
3.290506527589e+01
3.291660315679e+01
3.290532049742e+01
3.291706686190e+01
3.287629996279e+01
3.116022574505e+01
3.116015047269e+01
3.116024236973e+01
3.116027326405e+01
3.117671169734e+01
3.117680610117e+01
3.117704272424e+01
3.117651811546e+01
3.116323600690e+01
3.116911605914e+01
3.117495849422e+01
3.117516893423e+01
3.116903722874e+01
3.116337806607e+01
3.116336695665e+01
3.116681122259e+01
3.116370551922e+01
3.116317706759e+01
3.116910159963e+01
3.117498569437e+01
3.116327191527e+01
3.116675034591e+01
3.116359265180e+01
3.116316576743e+01