# vtk DataFile Version 3.0
Unstructured Grid from OpenGeoSys
ASCII
DATASET UNSTRUCTURED_GRID
FIELD TimesAndCycles 2
TIME 1 1 double
3.600000000000e+03
CYLCE 1 1 long
1
POINTS 1394 double
0.000000000000e+00 0.000000000000e+00 0.000000000000e+00
5.000000000000e+00 0.000000000000e+00 0.000000000000e+00
5.000000000000e+00 5.000000000000e+00 0.000000000000e+00
0.000000000000e+00 5.000000000000e+00 0.000000000000e+00
2.244234909000e+00 2.244234909000e+00 0.000000000000e+00
2.755765091000e+00 2.244234909000e+00 0.000000000000e+00
2.755765091000e+00 2.755765091000e+00 0.000000000000e+00
2.244234909000e+00 2.755765091000e+00 0.000000000000e+00
7.141316008320e-01 7.141316008320e-01 0.000000000000e+00
1.314642334730e+00 1.314642334730e+00 0.000000000000e+00
1.819609643610e+00 1.819609643610e+00 0.000000000000e+00
1.819609643610e+00 3.180390356390e+00 0.000000000000e+00
1.314642334740e+00 3.685357665260e+00 0.000000000000e+00
7.141316008360e-01 4.285868399160e+00 0.000000000000e+00
0.000000000000e+00 3.750000000000e+00 0.000000000000e+00
0.000000000000e+00 2.500000000000e+00 0.000000000000e+00
0.000000000000e+00 1.250000000000e+00 0.000000000000e+00
4.285868399170e+00 7.141316008320e-01 0.000000000000e+00
3.685357665270e+00 1.314642334730e+00 0.000000000000e+00
3.180390356390e+00 1.819609643610e+00 0.000000000000e+00
1.250000000000e+00 0.000000000000e+00 0.000000000000e+00
2.500000000000e+00 0.000000000000e+00 0.000000000000e+00
3.750000000000e+00 0.000000000000e+00 0.000000000000e+00
4.285868399170e+00 4.285868399170e+00 0.000000000000e+00
3.685357665270e+00 3.685357665270e+00 0.000000000000e+00
3.180390356390e+00 3.180390356390e+00 0.000000000000e+00
5.000000000000e+00 1.250000000000e+00 0.000000000000e+00
5.000000000000e+00 2.500000000000e+00 0.000000000000e+00
5.000000000000e+00 3.750000000000e+00 0.000000000000e+00
3.750000000000e+00 5.000000000000e+00 0.000000000000e+00
2.500000000000e+00 5.000000000000e+00 0.000000000000e+00
1.250000000000e+00 5.000000000000e+00 0.000000000000e+00
9.560744151940e-01 2.677827143250e+00 0.000000000000e+00
6.659597640160e-01 1.438876720610e+00 0.000000000000e+00
2.309219871940e+00 9.522638293400e-01 0.000000000000e+00
3.458157207860e+00 6.354750772000e-01 0.000000000000e+00
4.043925584810e+00 2.322172856750e+00 0.000000000000e+00
4.334040235980e+00 3.561123279390e+00 0.000000000000e+00
2.318530875810e+00 4.048536535600e+00 0.000000000000e+00
3.552396921680e+00 4.370927842320e+00 0.000000000000e+00
2.500000000000e+00 2.500000000000e+00 0.000000000000e+00
0.000000000000e+00 0.000000000000e+00 -5.000000000000e-01
5.000000000000e+00 0.000000000000e+00 -5.000000000000e-01
5.000000000000e+00 5.000000000000e+00 -5.000000000000e-01
0.000000000000e+00 5.000000000000e+00 -5.000000000000e-01
2.244234909000e+00 2.244234909000e+00 -5.000000000000e-01
2.755765091000e+00 2.244234909000e+00 -5.000000000000e-01
2.755765091000e+00 2.755765091000e+00 -5.000000000000e-01
2.244234909000e+00 2.755765091000e+00 -5.000000000000e-01
7.141316008320e-01 7.141316008320e-01 -5.000000000000e-01
1.314642334730e+00 1.314642334730e+00 -5.000000000000e-01
1.819609643610e+00 1.819609643610e+00 -5.000000000000e-01
1.819609643610e+00 3.180390356390e+00 -5.000000000000e-01
1.314642334740e+00 3.685357665260e+00 -5.000000000000e-01
7.141316008360e-01 4.285868399160e+00 -5.000000000000e-01
0.000000000000e+00 3.750000000000e+00 -5.000000000000e-01
0.000000000000e+00 2.500000000000e+00 -5.000000000000e-01
0.000000000000e+00 1.250000000000e+00 -5.000000000000e-01
4.285868399170e+00 7.141316008320e-01 -5.000000000000e-01
3.685357665270e+00 1.314642334730e+00 -5.000000000000e-01
3.180390356390e+00 1.819609643610e+00 -5.000000000000e-01
1.250000000000e+00 0.000000000000e+00 -5.000000000000e-01
2.500000000000e+00 0.000000000000e+00 -5.000000000000e-01
3.750000000000e+00 0.000000000000e+00 -5.000000000000e-01
4.285868399170e+00 4.285868399170e+00 -5.000000000000e-01
3.685357665270e+00 3.685357665270e+00 -5.000000000000e-01
3.180390356390e+00 3.180390356390e+00 -5.000000000000e-01
5.000000000000e+00 1.250000000000e+00 -5.000000000000e-01
5.000000000000e+00 2.500000000000e+00 -5.000000000000e-01
5.000000000000e+00 3.750000000000e+00 -5.000000000000e-01
3.750000000000e+00 5.000000000000e+00 -5.000000000000e-01
2.500000000000e+00 5.000000000000e+00 -5.000000000000e-01
1.250000000000e+00 5.000000000000e+00 -5.000000000000e-01
9.560744151940e-01 2.677827143250e+00 -5.000000000000e-01
6.659597640160e-01 1.438876720610e+00 -5.000000000000e-01
2.309219871940e+00 9.522638293400e-01 -5.000000000000e-01
3.458157207860e+00 6.354750772000e-01 -5.000000000000e-01
4.043925584810e+00 2.322172856750e+00 -5.000000000000e-01
4.334040235980e+00 3.561123279390e+00 -5.000000000000e-01
2.318530875810e+00 4.048536535600e+00 -5.000000000000e-01
3.552396921680e+00 4.370927842320e+00 -5.000000000000e-01
2.500000000000e+00 2.500000000000e+00 -5.000000000000e-01
0.000000000000e+00 0.000000000000e+00 -1.000000000000e+00
5.000000000000e+00 0.000000000000e+00 -1.000000000000e+00
5.000000000000e+00 5.000000000000e+00 -1.000000000000e+00
0.000000000000e+00 5.000000000000e+00 -1.000000000000e+00
2.244234909000e+00 2.244234909000e+00 -1.000000000000e+00
2.755765091000e+00 2.244234909000e+00 -1.000000000000e+00
2.755765091000e+00 2.755765091000e+00 -1.000000000000e+00
2.244234909000e+00 2.755765091000e+00 -1.000000000000e+00
7.141316008320e-01 7.141316008320e-01 -1.000000000000e+00
1.314642334730e+00 1.314642334730e+00 -1.000000000000e+00
1.819609643610e+00 1.819609643610e+00 -1.000000000000e+00
1.819609643610e+00 3.180390356390e+00 -1.000000000000e+00
1.314642334740e+00 3.685357665260e+00 -1.000000000000e+00
7.141316008360e-01 4.285868399160e+00 -1.000000000000e+00
0.000000000000e+00 3.750000000000e+00 -1.000000000000e+00
0.000000000000e+00 2.500000000000e+00 -1.000000000000e+00
0.000000000000e+00 1.250000000000e+00 -1.000000000000e+00
4.285868399170e+00 7.141316008320e-01 -1.000000000000e+00
3.685357665270e+00 1.314642334730e+00 -1.000000000000e+00
3.180390356390e+00 1.819609643610e+00 -1.000000000000e+00
1.250000000000e+00 0.000000000000e+00 -1.000000000000e+00
2.500000000000e+00 0.000000000000e+00 -1.000000000000e+00
3.750000000000e+00 0.000000000000e+00 -1.000000000000e+00
4.285868399170e+00 4.285868399170e+00 -1.000000000000e+00
3.685357665270e+00 3.685357665270e+00 -1.000000000000e+00
3.180390356390e+00 3.180390356390e+00 -1.000000000000e+00
5.000000000000e+00 1.250000000000e+00 -1.000000000000e+00
5.000000000000e+00 2.500000000000e+00 -1.000000000000e+00
5.000000000000e+00 3.750000000000e+00 -1.000000000000e+00
3.750000000000e+00 5.000000000000e+00 -1.000000000000e+00
2.500000000000e+00 5.000000000000e+00 -1.000000000000e+00
1.250000000000e+00 5.000000000000e+00 -1.000000000000e+00
9.560744151940e-01 2.677827143250e+00 -1.000000000000e+00
6.659597640160e-01 1.438876720610e+00 -1.000000000000e+00
2.309219871940e+00 9.522638293400e-01 -1.000000000000e+00
3.458157207860e+00 6.354750772000e-01 -1.000000000000e+00
4.043925584810e+00 2.322172856750e+00 -1.000000000000e+00
4.334040235980e+00 3.561123279390e+00 -1.000000000000e+00
2.318530875810e+00 4.048536535600e+00 -1.000000000000e+00
3.552396921680e+00 4.370927842320e+00 -1.000000000000e+00
2.500000000000e+00 2.500000000000e+00 -1.000000000000e+00
0.000000000000e+00 0.000000000000e+00 -3.000000000000e+00
5.000000000000e+00 0.000000000000e+00 -3.000000000000e+00
5.000000000000e+00 5.000000000000e+00 -3.000000000000e+00
0.000000000000e+00 5.000000000000e+00 -3.000000000000e+00
2.244234909000e+00 2.244234909000e+00 -3.000000000000e+00
2.755765091000e+00 2.244234909000e+00 -3.000000000000e+00
2.755765091000e+00 2.755765091000e+00 -3.000000000000e+00
2.244234909000e+00 2.755765091000e+00 -3.000000000000e+00
7.141316008320e-01 7.141316008320e-01 -3.000000000000e+00
1.314642334730e+00 1.314642334730e+00 -3.000000000000e+00
1.819609643610e+00 1.819609643610e+00 -3.000000000000e+00
1.819609643610e+00 3.180390356390e+00 -3.000000000000e+00
1.314642334740e+00 3.685357665260e+00 -3.000000000000e+00
7.141316008360e-01 4.285868399160e+00 -3.000000000000e+00
0.000000000000e+00 3.750000000000e+00 -3.000000000000e+00
0.000000000000e+00 2.500000000000e+00 -3.000000000000e+00
0.000000000000e+00 1.250000000000e+00 -3.000000000000e+00
4.285868399170e+00 7.141316008320e-01 -3.000000000000e+00
3.685357665270e+00 1.314642334730e+00 -3.000000000000e+00
3.180390356390e+00 1.819609643610e+00 -3.000000000000e+00
1.250000000000e+00 0.000000000000e+00 -3.000000000000e+00
2.500000000000e+00 0.000000000000e+00 -3.000000000000e+00
3.750000000000e+00 0.000000000000e+00 -3.000000000000e+00
4.285868399170e+00 4.285868399170e+00 -3.000000000000e+00
3.685357665270e+00 3.685357665270e+00 -3.000000000000e+00
3.180390356390e+00 3.180390356390e+00 -3.000000000000e+00
5.000000000000e+00 1.250000000000e+00 -3.000000000000e+00
5.000000000000e+00 2.500000000000e+00 -3.000000000000e+00
5.000000000000e+00 3.750000000000e+00 -3.000000000000e+00
3.750000000000e+00 5.000000000000e+00 -3.000000000000e+00
2.500000000000e+00 5.000000000000e+00 -3.000000000000e+00
1.250000000000e+00 5.000000000000e+00 -3.000000000000e+00
9.560744151940e-01 2.677827143250e+00 -3.000000000000e+00
6.659597640160e-01 1.438876720610e+00 -3.000000000000e+00
2.309219871940e+00 9.522638293400e-01 -3.000000000000e+00
3.458157207860e+00 6.354750772000e-01 -3.000000000000e+00
4.043925584810e+00 2.322172856750e+00 -3.000000000000e+00
4.334040235980e+00 3.561123279390e+00 -3.000000000000e+00
2.318530875810e+00 4.048536535600e+00 -3.000000000000e+00
3.552396921680e+00 4.370927842320e+00 -3.000000000000e+00
2.500000000000e+00 2.500000000000e+00 -3.000000000000e+00
0.000000000000e+00 0.000000000000e+00 -5.000000000000e+00
5.000000000000e+00 0.000000000000e+00 -5.000000000000e+00
5.000000000000e+00 5.000000000000e+00 -5.000000000000e+00
0.000000000000e+00 5.000000000000e+00 -5.000000000000e+00
2.244234909000e+00 2.244234909000e+00 -5.000000000000e+00
[...]
POINT_DATA 1394
SCALARS TEMPERATURE1 double 1
LOOKUP_TABLE default
1.000000000000e+01
1.000000000000e+01
1.000000000000e+01
1.000000000000e+01
1.000000000000e+01
1.000000000000e+01
1.000000000000e+01
1.000000000000e+01
1.000000000000e+01
1.000000000000e+01
1.000000000000e+01
1.000000000000e+01
1.000000000000e+01
1.000000000000e+01
1.000000000000e+01
1.000000000000e+01
1.000000000000e+01
1.000000000000e+01
1.000000000000e+01
1.000000000000e+01
1.000000000000e+01
1.000000000000e+01
1.000000000000e+01
1.000000000000e+01
1.000000000000e+01
1.000000000000e+01
1.000000000000e+01
1.000000000000e+01
1.000000000000e+01
1.000000000000e+01
1.000000000000e+01
1.000000000000e+01
1.000000000000e+01
1.000000000000e+01
1.000000000000e+01
1.000000000000e+01
1.000000000000e+01
1.000000000000e+01
1.000000000000e+01
1.000000000000e+01
1.000000000000e+01
2.006726015472e+01
2.006622011124e+01
2.006496694145e+01
2.007170424814e+01
1.951105259931e+01
1.950942502882e+01
1.949517001721e+01
1.953431209202e+01
2.003197954027e+01
1.990516256727e+01
1.969127757108e+01
1.968569891901e+01
1.991036978858e+01
2.003245691806e+01
2.004858162694e+01
2.000771063904e+01
2.003648930650e+01
2.003161337148e+01
1.990546369751e+01
1.969241345642e+01
2.004679558227e+01
2.000741030654e+01
2.003736311514e+01
2.003453493697e+01
1.990008126858e+01
1.969876403646e+01
2.004741386627e+01
2.000831130130e+01
2.003554866614e+01
2.003580756005e+01
2.000796309967e+01
2.004903893633e+01
1.991001097693e+01
1.999551331130e+01
1.991021157067e+01
1.999510994021e+01
1.991010758482e+01
1.999434637123e+01
1.991144352280e+01
1.999781978058e+01
2.014939817168e+01
2.957561999111e+01
2.957596795325e+01
2.958295418426e+01
2.957589082698e+01
2.640038721608e+01
2.641536968516e+01
2.643915508206e+01
2.637705593688e+01
2.946231841066e+01
2.907430618365e+01
2.815355358430e+01
2.813767765183e+01
2.909968460562e+01
2.946286879559e+01
2.948649453220e+01
2.935687562598e+01
2.944987978404e+01
2.946203613897e+01
2.907662069379e+01
2.816257157400e+01
2.948527874654e+01
2.935479364126e+01
2.945287357465e+01
2.947117172268e+01
2.905130520266e+01
2.817607376288e+01
2.948627830025e+01
2.935578419671e+01
2.945023126529e+01
2.945112908776e+01
2.935662430581e+01
2.948626680564e+01
2.913528742348e+01
2.935061361479e+01
2.913644527934e+01
2.934820631863e+01
2.913585781873e+01
2.934532860931e+01
2.914003699289e+01
2.935506891906e+01
2.208366821462e+01
3.442382556383e+01
3.442481006024e+01
3.443627391472e+01
3.442376538480e+01
2.929518391458e+01
2.931480078756e+01
2.934546177527e+01
2.926386313883e+01
3.422884431484e+01
3.354252170653e+01
3.200687211753e+01
3.197909100829e+01
3.358408626264e+01
3.423029001209e+01
3.427728176023e+01
3.404883717626e+01
3.421028519188e+01
3.422842742050e+01
3.354626659067e+01
3.201987824373e+01
3.427537985189e+01
3.404597144051e+01
3.421577700098e+01
3.424254372792e+01
3.350381232288e+01
3.204289782536e+01
3.427725226466e+01
3.404738769226e+01
3.421016337713e+01
3.421201414956e+01
3.404820330996e+01
3.427670885233e+01
3.363400378290e+01
3.403148076578e+01
3.363664150659e+01
3.402752685839e+01
3.363606848963e+01
3.402174753301e+01
3.364259042311e+01
3.403928215728e+01
2.282260991640e+01
3.735325596636e+01
3.735455384677e+01
3.736732095418e+01
3.735501793043e+01
3.111702520489e+01
3.113834084069e+01
3.117114463407e+01
3.108286334591e+01
3.708677722020e+01
3.619763895296e+01
3.431283292083e+01
3.427799052850e+01
3.624821049887e+01
3.708803064762e+01
3.714684272957e+01
3.683509943793e+01
3.706173237913e+01
3.708651141417e+01
3.620201888920e+01
3.432737290214e+01
3.714422202801e+01
3.683173337999e+01
3.706914856351e+01
3.710444924646e+01
3.614940683734e+01
3.435567363152e+01
3.714696775956e+01
3.683344661684e+01
3.706121810172e+01
3.706354194543e+01
3.683425000416e+01
3.714624889204e+01
3.628972584065e+01
3.682082634256e+01
3.629339941718e+01
3.681453371197e+01
3.629231338011e+01
3.680847825630e+01
3.630048531428e+01
3.683116937626e+01
2.356767892242e+01
3.885787410726e+01
3.885932197577e+01
3.887266675626e+01
3.886049239774e+01
3.208491033211e+01
3.210703674580e+01
3.214102227658e+01
3.204908848526e+01
3.855721060019e+01
3.756960119568e+01
3.551535552552e+01
3.547709772236e+01
3.762449768050e+01
3.855837045146e+01
3.862320311913e+01
3.827154380306e+01
3.852923020629e+01
3.855701568411e+01
3.757429425469e+01
3.553062059566e+01
3.862025061310e+01
3.826796537288e+01
3.853758969163e+01
3.857674559483e+01
3.751675547426e+01
3.556142502479e+01
3.862341727612e+01
3.826981307075e+01
3.852849144272e+01
3.853104209273e+01
3.827057585653e+01
3.862259286086e+01
3.766219042068e+01
3.825826706009e+01
3.766639573707e+01
3.825089911026e+01
3.766508400506e+01
3.824463064318e+01
3.767401952128e+01
3.826982810967e+01
2.401537745095e+01
3.953334797174e+01
3.953485980559e+01
3.954839389525e+01
3.953632875178e+01
3.255174808455e+01
3.257405652196e+01
3.260827348660e+01
3.251546616674e+01
3.921862955608e+01
3.819079712534e+01
3.606952290396e+01
3.602987425415e+01
3.824738008427e+01
3.921974299222e+01
3.928706799102e+01
3.891895814036e+01
3.918947535930e+01
3.921846856586e+01
3.819561179515e+01
3.608502361578e+01
3.928398612016e+01
3.891530963111e+01
3.919822901561e+01
3.923889576657e+01
3.813611120114e+01
3.611683521742e+01
3.928732944966e+01
3.891720489587e+01
3.918862958044e+01
3.919127099099e+01
3.891793586779e+01
3.928645084780e+01
3.828312637175e+01
3.890610695625e+01
3.828756424459e+01
3.889829459150e+01
3.828616074590e+01
3.889194155608e+01
3.829538911020e+01
3.891816290193e+01
2.429738226583e+01
3.981374202812e+01
3.981527544034e+01
3.982886105552e+01
3.981686996609e+01
3.274966899406e+01
3.277208103595e+01
3.280646248921e+01
3.271312918147e+01
3.949365972837e+01
3.845031042936e+01
3.630285909250e+01
3.626267880327e+01
3.850754354474e+01
3.949474600458e+01
3.956308038416e+01
3.918871360840e+01
3.946410027682e+01
3.949351227853e+01
3.845517441039e+01
3.631846313338e+01
3.955995095574e+01
3.918504332642e+01
3.947300839426e+01
3.951420742304e+01
3.839490683880e+01
3.635065074026e+01
3.956336365161e+01
3.918695729605e+01
3.946320600095e+01
3.946588013689e+01
3.918766858374e+01
3.956246159304e+01
3.854263070610e+01
3.917594707120e+01
3.854716135479e+01
3.916797477781e+01
3.854572171641e+01
3.916157589551e+01
3.855505977898e+01
3.918819169648e+01
2.441412506553e+01
3.972607082807e+01
3.972750804651e+01
3.974043483338e+01
3.972939685279e+01
3.294058613370e+01
3.296174767588e+01
3.299453795676e+01
3.290534336939e+01
3.941529966621e+01
3.840585737591e+01
3.634067686734e+01
3.630200356718e+01
3.846085014761e+01
3.941637238301e+01
3.948249118773e+01
3.911896353123e+01
3.938677953303e+01
3.941515353840e+01
3.841049864835e+01
3.635545785530e+01
3.947937077459e+01
3.911542033456e+01
3.939540552113e+01
3.943514567942e+01
3.835255498798e+01
3.638636956738e+01
3.948269051058e+01
3.911728353164e+01
3.938588023672e+01
3.938846053906e+01
3.911796447291e+01
3.948191492523e+01
3.849232511917e+01
3.910704999070e+01
3.849672573206e+01
3.909922919346e+01
3.849535221570e+01
3.909319515956e+01
3.850435831079e+01
3.911895557908e+01
2.498990439258e+01
3.948418245322e+01
3.948551943815e+01
3.949784795299e+01
3.948755804186e+01
3.299261116449e+01
3.301264598652e+01
3.304399741973e+01
3.295862528556e+01
3.918547522433e+01
3.821622970333e+01
3.623918274463e+01
3.620216734588e+01
3.826886244522e+01
3.918655804432e+01
3.925013889011e+01
3.890066040930e+01
3.915820336757e+01
3.918531782562e+01
3.822065102377e+01
3.625321132181e+01
3.924706357783e+01
3.889724396474e+01
3.916647545985e+01
3.920451204086e+01
3.816522278155e+01
3.628277847701e+01
3.925025183917e+01
3.889905140913e+01
3.915733044734e+01
3.915980688563e+01
3.889971572257e+01
3.924959938283e+01
3.829802169223e+01
3.888922619251e+01
3.830224454378e+01
3.888167463983e+01
3.830095769143e+01
3.887595621810e+01
3.830959941093e+01
3.890070184786e+01
2.541514452987e+01
3.931972073419e+01
3.932098089324e+01
3.933283681957e+01
3.932314235603e+01
3.305694142275e+01
3.307608224140e+01
3.310628126603e+01
3.302396309590e+01
3.903023977443e+01
3.809194333340e+01
3.618335843613e+01
3.614762472954e+01
3.814273908912e+01
3.903132738834e+01
3.909294812932e+01
3.875421171176e+01
3.900392626497e+01
3.903007518452e+01
3.809619285114e+01
3.619679304226e+01
3.908990757511e+01
3.875089566558e+01
3.901192782788e+01
3.904865033744e+01
3.804271519061e+01
3.622531656687e+01
3.909299615469e+01
3.875265896317e+01
3.900307095268e+01
3.900546692238e+01
3.875330817131e+01
3.909243739462e+01
3.816999011374e+01
3.874318121529e+01
3.817407861286e+01
3.873583191425e+01
3.817285740163e+01
3.873036236218e+01
3.818121562206e+01
3.875432647753e+01
2.577250262056e+01
3.918521582458e+01
3.918641377613e+01
3.919788880377e+01
3.918866037785e+01
3.311021120519e+01
3.312863773602e+01
3.315791321715e+01
3.307805059677e+01
3.890348988351e+01
3.799097873120e+01
3.613871954147e+01
3.610404374029e+01
3.804026600630e+01
3.890458165433e+01
3.896457171368e+01
3.863486708736e+01
3.887797263373e+01
3.890331893490e+01
3.799508862843e+01
3.615167683943e+01
3.896156411023e+01
3.863163355909e+01
3.888574791720e+01
3.892138060285e+01
3.794321651670e+01
3.617934253522e+01
3.896456830388e+01
3.863335988401e+01
3.887713418735e+01
3.887946349084e+01
3.863399742421e+01
3.896408379010e+01
3.806607174083e+01
3.862414175639e+01
3.807004703046e+01
3.861696735632e+01
3.806888029173e+01
3.861169635211e+01
3.807700414611e+01
3.863500895453e+01
2.606350807779e+01
3.908585591178e+01
3.908700685778e+01
3.909819285260e+01
3.908930839479e+01
3.315522706276e+01
3.317311778327e+01
3.320169512166e+01
3.312369427225e+01
3.881020239999e+01
3.791775669146e+01
3.610889464848e+01
3.607503558820e+01
3.796588334900e+01
3.881129674581e+01
3.887001771975e+01
3.854738777448e+01
3.878530222891e+01
3.881002653564e+01
3.792176016719e+01
3.612149142858e+01
3.886703875187e+01
3.854421807390e+01
3.879290112397e+01
3.882768985066e+01
3.787112492585e+01
3.614849679924e+01
3.886997660192e+01
3.854591530864e+01
3.878447811383e+01
3.878675570755e+01
3.854654408110e+01
3.886954680713e+01
3.799065045450e+01
3.853688443399e+01
3.799453704703e+01
3.852984988036e+01
3.799341216700e+01
3.852472805097e+01
3.800135463758e+01
3.854753329551e+01
2.628964431772e+01
3.901841829019e+01
3.901953659575e+01
3.903052043250e+01
3.902186597058e+01
3.319075482057e+01
3.320828034933e+01
3.323637547380e+01
3.315966751692e+01
3.874721751813e+01
3.786936071400e+01
3.609156561029e+01
3.605829348794e+01
3.791665846225e+01
3.874831268180e+01
3.880610931174e+01
3.848867109736e+01
3.872276234641e+01
3.874703817508e+01
3.787328927760e+01
3.610391277405e+01
3.880315444125e+01
3.848554729712e+01
3.873023267736e+01
3.876441372168e+01
3.782353916482e+01
3.613044564782e+01
3.880604336944e+01
3.848722308621e+01
3.872195007036e+01
3.872419021655e+01
3.848784590695e+01
3.880565000931e+01
3.794076460798e+01
3.847831507766e+01
3.794458592811e+01
3.847138604668e+01
3.794349067445e+01
3.846636719201e+01
3.795130255819e+01
3.848880308855e+01
2.645246966309e+01
3.898099984856e+01
3.898209906541e+01
3.899296449253e+01
3.898443084142e+01
3.321644467506e+01
3.323377052317e+01
3.326159472269e+01
3.318562301360e+01
3.871270034515e+01
3.784417145805e+01
3.608558358177e+01
3.605267799229e+01
3.789095947333e+01
3.871379511654e+01
3.877100039778e+01
3.845694994744e+01
3.868852636577e+01
3.871251869131e+01
3.784805540908e+01
3.609778779960e+01
3.876806486609e+01
3.845385461287e+01
3.869591389854e+01
3.872971293221e+01
3.779885255602e+01
3.612402828838e+01
3.877092149645e+01
3.845551646410e+01
3.868772359397e+01
3.868994002344e+01
3.845613618927e+01
3.877054754307e+01
3.791477208642e+01
3.844666546918e+01
3.791855049209e+01
3.843980930099e+01
3.791747342598e+01
3.843484878241e+01
3.792520364766e+01
3.845704800322e+01
2.655353582440e+01
3.898896777463e+01
3.899006467850e+01
3.900090408006e+01
3.899237741452e+01
3.323997151307e+01
3.325727917954e+01
3.328505392142e+01
3.320923048943e+01
3.872155542110e+01
3.785576652248e+01
3.610212184342e+01
3.606931246528e+01
3.790242552758e+01
3.872264494590e+01
3.877966734535e+01
3.846666400612e+01
3.869745420286e+01
3.872137436266e+01
3.785964123387e+01
3.611430362255e+01
3.877674445916e+01
3.846357759730e+01
3.870481799967e+01
3.873851778645e+01
3.781057613446e+01
3.614046950142e+01
3.877959130981e+01
3.846523422245e+01
3.869665561460e+01
3.869886494976e+01
3.846585250112e+01
3.877921528873e+01
3.792627843185e+01
3.845639619618e+01
3.793004376310e+01
3.844956625403e+01
3.792896896258e+01
3.844461534175e+01
3.793667664191e+01
3.846674378030e+01
2.659288043882e+01
3.894719903335e+01
3.894829153160e+01
3.895911196523e+01
3.895058170552e+01
3.321378869345e+01
3.323106748832e+01
3.325882486633e+01
3.318305390480e+01
3.868079051854e+01
3.781777135979e+01
3.606898755172e+01
3.603627683286e+01
3.786430273261e+01
3.868188451228e+01
3.873875776814e+01
3.842691454116e+01
3.865678510354e+01
3.868060690870e+01
3.782163751187e+01
3.608114307093e+01
3.873584508657e+01
3.842383615812e+01
3.866412290066e+01
3.869769339293e+01
3.777271475177e+01
3.610723106758e+01
3.873867949350e+01
3.842548807810e+01
3.865599071258e+01
3.865819353578e+01
3.842610515865e+01
3.873830539506e+01
3.788826956395e+01
3.841658182893e+01
3.789202281647e+01
3.840978616530e+01
3.789095765706e+01
3.840483575072e+01
3.789863994154e+01
3.842689401933e+01
2.657933390517e+01
3.874939174978e+01
3.875046989594e+01
3.876119988539e+01
3.875264420810e+01
3.308629359319e+01
3.310349535527e+01
3.313101779929e+01
3.305596735717e+01
3.848754671632e+01
3.763800342169e+01
3.591166511577e+01
3.587939466352e+01
3.768396112971e+01
3.848862596059e+01
3.854461539013e+01
3.823816324865e+01
3.846390369895e+01
3.848736105151e+01
3.764183216811e+01
3.592375601495e+01
3.854176515504e+01
3.823511996614e+01
3.847111852715e+01
3.850420953615e+01
3.759354574124e+01
3.594953328117e+01
3.854454635065e+01
3.823675048857e+01
3.846313876031e+01
3.846530718220e+01
3.823736707531e+01
3.854416592868e+01
3.770852038329e+01
3.822780318989e+01
3.771220176080e+01
3.822115301128e+01
3.771115008828e+01
3.821623129340e+01
3.771872988955e+01
3.823794110320e+01
2.653113269306e+01
3.814049859727e+01
3.814154273305e+01
3.815187154790e+01
3.814348712802e+01
3.273256579367e+01
3.274924348842e+01
3.277658963139e+01
3.270206630205e+01
3.789122558736e+01
3.708206448402e+01
3.543619352613e+01
3.540555216743e+01
3.712589750190e+01
3.789228270475e+01
3.794546001458e+01
3.765364070605e+01
3.786852326381e+01
3.789104212177e+01
3.708571402829e+01
3.544772749075e+01
3.794276415003e+01
3.765072912842e+01
3.787538800630e+01
3.790707851010e+01
3.703968816348e+01
3.547209182340e+01
3.794539319941e+01
3.765227084396e+01
3.786782112351e+01
3.786988864879e+01
3.765287577991e+01
3.794501466840e+01
3.714954353306e+01
3.764390242351e+01
3.715306336783e+01
3.763756371825e+01
3.715209513631e+01
3.763286958963e+01
3.715930060619e+01
3.765354119678e+01
2.639800573497e+01
3.687688740018e+01
3.687772162971e+01
3.688763393557e+01
3.687854851726e+01
3.188161550881e+01
3.189718169175e+01
3.192044462850e+01
3.185734771720e+01
3.666635173656e+01
3.594710758611e+01
3.442152876193e+01
3.439291235221e+01
3.598778187625e+01
3.666758927543e+01
3.671782287396e+01
3.647103232749e+01
3.664822897547e+01
3.666602781165e+01
3.595070689274e+01
3.443307036485e+01
3.671556981610e+01
3.646839531029e+01
3.665421554256e+01
3.668019643195e+01
3.590838493537e+01
3.445664000225e+01
3.671775433018e+01
3.646982649655e+01
3.664760770799e+01
3.664944729414e+01
3.647030933599e+01
3.671736539537e+01
3.602438788188e+01
3.645443784074e+01
3.602745070005e+01
3.644986990234e+01
3.602677631371e+01
3.644441145764e+01
3.603322022978e+01
3.646281614140e+01
2.614257910949e+01
3.502851023945e+01
3.502894016639e+01
3.503454546564e+01
3.502932995372e+01
3.178097538943e+01
3.180089283385e+01
3.184304946656e+01
3.173200305446e+01
3.491594170122e+01
3.452587211878e+01
3.363307834426e+01
3.362039364928e+01
3.454977042801e+01
3.491616762993e+01
3.494353114022e+01
3.481371322893e+01
3.490671270957e+01
3.491570083974e+01
3.452797304937e+01
3.364150051611e+01
3.494233749430e+01
3.481211184852e+01
3.490988437564e+01
3.492445909137e+01
3.450323975602e+01
3.364961995449e+01
3.494342882157e+01
3.481300403465e+01
3.490648276681e+01
3.490746494456e+01
3.481336192917e+01
3.494323947372e+01
3.458074278041e+01
3.480352347497e+01
3.458229619621e+01
3.480136744507e+01
3.458207950943e+01
3.479801994166e+01
3.458580837885e+01
3.480797577114e+01
2.650097387479e+01
3.451673712337e+01
3.451704049755e+01
3.452079847741e+01
3.451772279167e+01
3.329215658236e+01
3.328525920995e+01
3.325723109649e+01
3.333028484499e+01
3.443499829569e+01
3.417617020295e+01
3.369188506356e+01
3.367792347675e+01
3.418941887445e+01
3.443589351833e+01
3.445164166556e+01
3.435444904909e+01
3.442628155864e+01
3.443497783802e+01
3.417726636430e+01
3.369413637552e+01
3.445064990415e+01
3.435343686823e+01
3.442842086098e+01
3.443954438170e+01
3.416372961035e+01
3.370898053930e+01
3.445157919484e+01
3.435395106899e+01
3.442620238747e+01
3.442690587464e+01
3.435429574075e+01
3.445161096978e+01
3.418927602651e+01
3.435365511151e+01
3.419017211221e+01
3.435120652808e+01
3.418946790478e+01
3.435031655304e+01
3.419193934871e+01
3.435693079758e+01
3.406341295298e+01
3.400063785900e+01
3.400089370071e+01
3.400269428031e+01
3.400194945811e+01
3.356205962954e+01
3.355621957766e+01
3.354629637579e+01
3.357008142343e+01
3.394587104350e+01
3.380030832836e+01
3.360736663305e+01
3.360175262402e+01
3.380553103104e+01
3.394663596465e+01
3.395296284975e+01
3.388681491251e+01
3.393876112862e+01
3.394588994071e+01
3.380049578583e+01
3.360642706566e+01
3.395210393144e+01
3.388620275125e+01
3.394001672204e+01
3.394811479581e+01
3.379511017019e+01
3.361152724295e+01
3.395263872912e+01
3.388637083762e+01
3.393880220313e+01
3.393922817290e+01
3.388673127259e+01
3.395290559877e+01
3.378818896836e+01
3.389307758290e+01
3.378892398072e+01
3.389064183157e+01
3.378880407155e+01
3.389135853970e+01
3.378991428829e+01
3.389511456549e+01
3.337764924292e+01
3.348918752793e+01
3.348933013632e+01
3.348997487869e+01
3.349049911033e+01
3.327373824274e+01
3.327284624151e+01
3.327163553619e+01
3.327421747495e+01
3.345551286298e+01
3.338292040870e+01
3.330675534655e+01
3.330493343891e+01
3.338512608688e+01
3.345567181199e+01
3.345698806103e+01
3.341724890604e+01
3.345085250518e+01
3.345559317725e+01
3.338282685582e+01
3.330612438522e+01
3.345641899776e+01
3.341688383660e+01
3.345148217751e+01
3.345712633914e+01
3.338049961057e+01
3.330731460723e+01
3.345676491624e+01
3.341701210552e+01
3.345092852984e+01
3.345115791778e+01
3.341729680088e+01
3.345702156039e+01
3.336990132074e+01
3.342495810834e+01
3.337016768781e+01
3.342314442264e+01
3.336995218571e+01
3.342428206723e+01
3.337066004399e+01
3.342613307905e+01
3.329797242820e+01
3.299225954072e+01
3.299232487018e+01
3.299271054010e+01
3.299306806239e+01
3.289999623341e+01
3.289947382690e+01
3.289843874199e+01
3.290102720709e+01
3.297436540664e+01
3.294108474760e+01
3.290933283143e+01
3.290854996299e+01
3.294214879949e+01
3.297440599611e+01
3.297397541060e+01
3.295325977682e+01
3.297150587014e+01
3.297442003480e+01
3.294099824183e+01
3.290908554929e+01
3.297363723068e+01
3.295299936480e+01
3.297177129740e+01
3.297536450643e+01
3.293999204515e+01
3.290973648231e+01
3.297382004593e+01
3.295309701198e+01
3.297164146207e+01
3.297175350058e+01
3.295333785987e+01
3.297402263837e+01
3.293341386430e+01
3.295885085232e+01
3.293343500949e+01
3.295776130574e+01
3.293323336882e+01
3.295862190255e+01
3.293369162263e+01
3.295946025136e+01
3.289471118938e+01
3.132359194038e+01
3.132354155043e+01
3.132364455732e+01
3.132366457958e+01
3.133150060943e+01
3.133154648423e+01
3.133168913059e+01
3.133138143908e+01
3.132503544586e+01
3.132787397724e+01
3.133071853172e+01
3.133084443593e+01
3.132787276162e+01
3.132515256626e+01
3.132513162809e+01
3.132675712280e+01
3.132525519254e+01
3.132499315512e+01
3.132785735297e+01
3.133072370625e+01
3.132503919311e+01
3.132669340519e+01
3.132518043486e+01
3.132503402544e+01