# vtk DataFile Version 3.0
Unstructured Grid from OpenGeoSys
ASCII
DATASET UNSTRUCTURED_GRID
FIELD TimesAndCycles 2
TIME 1 1 double
3.600000000000e+03
CYLCE 1 1 long
1
POINTS 1394 double
0.000000000000e+00 0.000000000000e+00 0.000000000000e+00
5.000000000000e+00 0.000000000000e+00 0.000000000000e+00
5.000000000000e+00 5.000000000000e+00 0.000000000000e+00
0.000000000000e+00 5.000000000000e+00 0.000000000000e+00
2.244234909000e+00 2.244234909000e+00 0.000000000000e+00
2.755765091000e+00 2.244234909000e+00 0.000000000000e+00
2.755765091000e+00 2.755765091000e+00 0.000000000000e+00
2.244234909000e+00 2.755765091000e+00 0.000000000000e+00
7.141316008320e-01 7.141316008320e-01 0.000000000000e+00
1.314642334730e+00 1.314642334730e+00 0.000000000000e+00
1.819609643610e+00 1.819609643610e+00 0.000000000000e+00
1.819609643610e+00 3.180390356390e+00 0.000000000000e+00
1.314642334740e+00 3.685357665260e+00 0.000000000000e+00
7.141316008360e-01 4.285868399160e+00 0.000000000000e+00
0.000000000000e+00 3.750000000000e+00 0.000000000000e+00
0.000000000000e+00 2.500000000000e+00 0.000000000000e+00
0.000000000000e+00 1.250000000000e+00 0.000000000000e+00
4.285868399170e+00 7.141316008320e-01 0.000000000000e+00
3.685357665270e+00 1.314642334730e+00 0.000000000000e+00
3.180390356390e+00 1.819609643610e+00 0.000000000000e+00
1.250000000000e+00 0.000000000000e+00 0.000000000000e+00
2.500000000000e+00 0.000000000000e+00 0.000000000000e+00
3.750000000000e+00 0.000000000000e+00 0.000000000000e+00
4.285868399170e+00 4.285868399170e+00 0.000000000000e+00
3.685357665270e+00 3.685357665270e+00 0.000000000000e+00
3.180390356390e+00 3.180390356390e+00 0.000000000000e+00
5.000000000000e+00 1.250000000000e+00 0.000000000000e+00
5.000000000000e+00 2.500000000000e+00 0.000000000000e+00
5.000000000000e+00 3.750000000000e+00 0.000000000000e+00
3.750000000000e+00 5.000000000000e+00 0.000000000000e+00
2.500000000000e+00 5.000000000000e+00 0.000000000000e+00
1.250000000000e+00 5.000000000000e+00 0.000000000000e+00
9.560744151940e-01 2.677827143250e+00 0.000000000000e+00
6.659597640160e-01 1.438876720610e+00 0.000000000000e+00
2.309219871940e+00 9.522638293400e-01 0.000000000000e+00
3.458157207860e+00 6.354750772000e-01 0.000000000000e+00
4.043925584810e+00 2.322172856750e+00 0.000000000000e+00
4.334040235980e+00 3.561123279390e+00 0.000000000000e+00
2.318530875810e+00 4.048536535600e+00 0.000000000000e+00
3.552396921680e+00 4.370927842320e+00 0.000000000000e+00
2.500000000000e+00 2.500000000000e+00 0.000000000000e+00
0.000000000000e+00 0.000000000000e+00 -5.000000000000e-01
5.000000000000e+00 0.000000000000e+00 -5.000000000000e-01
5.000000000000e+00 5.000000000000e+00 -5.000000000000e-01
0.000000000000e+00 5.000000000000e+00 -5.000000000000e-01
2.244234909000e+00 2.244234909000e+00 -5.000000000000e-01
2.755765091000e+00 2.244234909000e+00 -5.000000000000e-01
2.755765091000e+00 2.755765091000e+00 -5.000000000000e-01
2.244234909000e+00 2.755765091000e+00 -5.000000000000e-01
7.141316008320e-01 7.141316008320e-01 -5.000000000000e-01
1.314642334730e+00 1.314642334730e+00 -5.000000000000e-01
1.819609643610e+00 1.819609643610e+00 -5.000000000000e-01
1.819609643610e+00 3.180390356390e+00 -5.000000000000e-01
1.314642334740e+00 3.685357665260e+00 -5.000000000000e-01
7.141316008360e-01 4.285868399160e+00 -5.000000000000e-01
0.000000000000e+00 3.750000000000e+00 -5.000000000000e-01
0.000000000000e+00 2.500000000000e+00 -5.000000000000e-01
0.000000000000e+00 1.250000000000e+00 -5.000000000000e-01
4.285868399170e+00 7.141316008320e-01 -5.000000000000e-01
3.685357665270e+00 1.314642334730e+00 -5.000000000000e-01
3.180390356390e+00 1.819609643610e+00 -5.000000000000e-01
1.250000000000e+00 0.000000000000e+00 -5.000000000000e-01
2.500000000000e+00 0.000000000000e+00 -5.000000000000e-01
3.750000000000e+00 0.000000000000e+00 -5.000000000000e-01
4.285868399170e+00 4.285868399170e+00 -5.000000000000e-01
3.685357665270e+00 3.685357665270e+00 -5.000000000000e-01
3.180390356390e+00 3.180390356390e+00 -5.000000000000e-01
5.000000000000e+00 1.250000000000e+00 -5.000000000000e-01
5.000000000000e+00 2.500000000000e+00 -5.000000000000e-01
5.000000000000e+00 3.750000000000e+00 -5.000000000000e-01
3.750000000000e+00 5.000000000000e+00 -5.000000000000e-01
2.500000000000e+00 5.000000000000e+00 -5.000000000000e-01
1.250000000000e+00 5.000000000000e+00 -5.000000000000e-01
9.560744151940e-01 2.677827143250e+00 -5.000000000000e-01
6.659597640160e-01 1.438876720610e+00 -5.000000000000e-01
2.309219871940e+00 9.522638293400e-01 -5.000000000000e-01
3.458157207860e+00 6.354750772000e-01 -5.000000000000e-01
4.043925584810e+00 2.322172856750e+00 -5.000000000000e-01
4.334040235980e+00 3.561123279390e+00 -5.000000000000e-01
2.318530875810e+00 4.048536535600e+00 -5.000000000000e-01
3.552396921680e+00 4.370927842320e+00 -5.000000000000e-01
2.500000000000e+00 2.500000000000e+00 -5.000000000000e-01
0.000000000000e+00 0.000000000000e+00 -1.000000000000e+00
5.000000000000e+00 0.000000000000e+00 -1.000000000000e+00
5.000000000000e+00 5.000000000000e+00 -1.000000000000e+00
0.000000000000e+00 5.000000000000e+00 -1.000000000000e+00
2.244234909000e+00 2.244234909000e+00 -1.000000000000e+00
2.755765091000e+00 2.244234909000e+00 -1.000000000000e+00
2.755765091000e+00 2.755765091000e+00 -1.000000000000e+00
2.244234909000e+00 2.755765091000e+00 -1.000000000000e+00
7.141316008320e-01 7.141316008320e-01 -1.000000000000e+00
1.314642334730e+00 1.314642334730e+00 -1.000000000000e+00
1.819609643610e+00 1.819609643610e+00 -1.000000000000e+00
1.819609643610e+00 3.180390356390e+00 -1.000000000000e+00
1.314642334740e+00 3.685357665260e+00 -1.000000000000e+00
7.141316008360e-01 4.285868399160e+00 -1.000000000000e+00
0.000000000000e+00 3.750000000000e+00 -1.000000000000e+00
0.000000000000e+00 2.500000000000e+00 -1.000000000000e+00
0.000000000000e+00 1.250000000000e+00 -1.000000000000e+00
4.285868399170e+00 7.141316008320e-01 -1.000000000000e+00
3.685357665270e+00 1.314642334730e+00 -1.000000000000e+00
3.180390356390e+00 1.819609643610e+00 -1.000000000000e+00
1.250000000000e+00 0.000000000000e+00 -1.000000000000e+00
2.500000000000e+00 0.000000000000e+00 -1.000000000000e+00
3.750000000000e+00 0.000000000000e+00 -1.000000000000e+00
4.285868399170e+00 4.285868399170e+00 -1.000000000000e+00
3.685357665270e+00 3.685357665270e+00 -1.000000000000e+00
3.180390356390e+00 3.180390356390e+00 -1.000000000000e+00
5.000000000000e+00 1.250000000000e+00 -1.000000000000e+00
5.000000000000e+00 2.500000000000e+00 -1.000000000000e+00
5.000000000000e+00 3.750000000000e+00 -1.000000000000e+00
3.750000000000e+00 5.000000000000e+00 -1.000000000000e+00
2.500000000000e+00 5.000000000000e+00 -1.000000000000e+00
1.250000000000e+00 5.000000000000e+00 -1.000000000000e+00
9.560744151940e-01 2.677827143250e+00 -1.000000000000e+00
6.659597640160e-01 1.438876720610e+00 -1.000000000000e+00
2.309219871940e+00 9.522638293400e-01 -1.000000000000e+00
3.458157207860e+00 6.354750772000e-01 -1.000000000000e+00
4.043925584810e+00 2.322172856750e+00 -1.000000000000e+00
4.334040235980e+00 3.561123279390e+00 -1.000000000000e+00
2.318530875810e+00 4.048536535600e+00 -1.000000000000e+00
3.552396921680e+00 4.370927842320e+00 -1.000000000000e+00
2.500000000000e+00 2.500000000000e+00 -1.000000000000e+00
0.000000000000e+00 0.000000000000e+00 -3.000000000000e+00
5.000000000000e+00 0.000000000000e+00 -3.000000000000e+00
5.000000000000e+00 5.000000000000e+00 -3.000000000000e+00
0.000000000000e+00 5.000000000000e+00 -3.000000000000e+00
2.244234909000e+00 2.244234909000e+00 -3.000000000000e+00
2.755765091000e+00 2.244234909000e+00 -3.000000000000e+00
2.755765091000e+00 2.755765091000e+00 -3.000000000000e+00
2.244234909000e+00 2.755765091000e+00 -3.000000000000e+00
7.141316008320e-01 7.141316008320e-01 -3.000000000000e+00
1.314642334730e+00 1.314642334730e+00 -3.000000000000e+00
1.819609643610e+00 1.819609643610e+00 -3.000000000000e+00
1.819609643610e+00 3.180390356390e+00 -3.000000000000e+00
1.314642334740e+00 3.685357665260e+00 -3.000000000000e+00
7.141316008360e-01 4.285868399160e+00 -3.000000000000e+00
0.000000000000e+00 3.750000000000e+00 -3.000000000000e+00
0.000000000000e+00 2.500000000000e+00 -3.000000000000e+00
0.000000000000e+00 1.250000000000e+00 -3.000000000000e+00
4.285868399170e+00 7.141316008320e-01 -3.000000000000e+00
3.685357665270e+00 1.314642334730e+00 -3.000000000000e+00
3.180390356390e+00 1.819609643610e+00 -3.000000000000e+00
1.250000000000e+00 0.000000000000e+00 -3.000000000000e+00
2.500000000000e+00 0.000000000000e+00 -3.000000000000e+00
3.750000000000e+00 0.000000000000e+00 -3.000000000000e+00
4.285868399170e+00 4.285868399170e+00 -3.000000000000e+00
3.685357665270e+00 3.685357665270e+00 -3.000000000000e+00
3.180390356390e+00 3.180390356390e+00 -3.000000000000e+00
5.000000000000e+00 1.250000000000e+00 -3.000000000000e+00
5.000000000000e+00 2.500000000000e+00 -3.000000000000e+00
5.000000000000e+00 3.750000000000e+00 -3.000000000000e+00
3.750000000000e+00 5.000000000000e+00 -3.000000000000e+00
2.500000000000e+00 5.000000000000e+00 -3.000000000000e+00
1.250000000000e+00 5.000000000000e+00 -3.000000000000e+00
9.560744151940e-01 2.677827143250e+00 -3.000000000000e+00
6.659597640160e-01 1.438876720610e+00 -3.000000000000e+00
2.309219871940e+00 9.522638293400e-01 -3.000000000000e+00
3.458157207860e+00 6.354750772000e-01 -3.000000000000e+00
4.043925584810e+00 2.322172856750e+00 -3.000000000000e+00
4.334040235980e+00 3.561123279390e+00 -3.000000000000e+00
2.318530875810e+00 4.048536535600e+00 -3.000000000000e+00
3.552396921680e+00 4.370927842320e+00 -3.000000000000e+00
2.500000000000e+00 2.500000000000e+00 -3.000000000000e+00
0.000000000000e+00 0.000000000000e+00 -5.000000000000e+00
5.000000000000e+00 0.000000000000e+00 -5.000000000000e+00
5.000000000000e+00 5.000000000000e+00 -5.000000000000e+00
0.000000000000e+00 5.000000000000e+00 -5.000000000000e+00
2.244234909000e+00 2.244234909000e+00 -5.000000000000e+00
[...]
POINT_DATA 1394
SCALARS TEMPERATURE1 double 1
LOOKUP_TABLE default
1.000000000000e+01
1.000000000000e+01
1.000000000000e+01
1.000000000000e+01
1.000000000000e+01
1.000000000000e+01
1.000000000000e+01
1.000000000000e+01
1.000000000000e+01
1.000000000000e+01
1.000000000000e+01
1.000000000000e+01
1.000000000000e+01
1.000000000000e+01
1.000000000000e+01
1.000000000000e+01
1.000000000000e+01
1.000000000000e+01
1.000000000000e+01
1.000000000000e+01
1.000000000000e+01
1.000000000000e+01
1.000000000000e+01
1.000000000000e+01
1.000000000000e+01
1.000000000000e+01
1.000000000000e+01
1.000000000000e+01
1.000000000000e+01
1.000000000000e+01
1.000000000000e+01
1.000000000000e+01
1.000000000000e+01
1.000000000000e+01
1.000000000000e+01
1.000000000000e+01
1.000000000000e+01
1.000000000000e+01
1.000000000000e+01
1.000000000000e+01
1.000000000000e+01
1.682373696961e+01
1.682462883177e+01
1.682590574020e+01
1.682605277665e+01
1.802012182503e+01
1.797997582265e+01
1.796950359579e+01
1.797316610345e+01
1.672994637541e+01
1.649822880554e+01
1.661283294104e+01
1.661124525399e+01
1.649276833952e+01
1.673447943119e+01
1.674499595244e+01
1.661736325986e+01
1.671478883405e+01
1.672964860293e+01
1.649727769686e+01
1.659572892899e+01
1.674281962473e+01
1.661705266144e+01
1.671741363408e+01
1.672642618198e+01
1.650206713693e+01
1.659210320804e+01
1.674323397680e+01
1.661593181971e+01
1.671452163993e+01
1.671517857264e+01
1.661630255824e+01
1.674409041375e+01
1.639580905403e+01
1.663259447882e+01
1.639986066125e+01
1.662662787654e+01
1.640299046675e+01
1.662921014302e+01
1.640099492579e+01
1.663570521761e+01
1.988132699521e+01
2.289170104399e+01
2.289351221676e+01
2.286649463436e+01
2.291562385842e+01
2.616060942288e+01
2.629272546684e+01
2.658119489730e+01
2.585249506363e+01
2.278261186388e+01
2.333993006086e+01
2.559368364978e+01
2.567851080058e+01
2.328031180991e+01
2.276825224577e+01
2.266178446594e+01
2.255774967500e+01
2.275719074946e+01
2.278710374026e+01
2.332749124489e+01
2.557280258362e+01
2.266121816916e+01
2.256153472785e+01
2.275459504317e+01
2.278786050057e+01
2.337775881863e+01
2.545403017858e+01
2.266294233104e+01
2.255988497236e+01
2.275578259374e+01
2.275494743042e+01
2.255993641405e+01
2.266358190456e+01
2.293259414180e+01
2.275893281166e+01
2.293065526169e+01
2.273874650866e+01
2.292724246655e+01
2.277315694405e+01
2.292349163700e+01
2.275753575433e+01
2.002150949965e+01
2.555186066150e+01
2.555452006819e+01
2.552554363273e+01
2.557426762176e+01
2.803851773224e+01
2.818332980988e+01
2.847037183743e+01
2.776003611615e+01
2.546756050149e+01
2.627145490756e+01
2.851853404376e+01
2.860706054118e+01
2.621500454350e+01
2.544432639299e+01
2.529393411480e+01
2.524943430062e+01
2.543394650720e+01
2.547401698528e+01
2.625942363259e+01
2.851738056991e+01
2.529708354558e+01
2.525310905985e+01
2.542968848857e+01
2.548141194937e+01
2.630543084064e+01
2.840414981014e+01
2.529946095379e+01
2.525212054233e+01
2.543487445345e+01
2.543294088222e+01
2.525298818377e+01
2.529692344094e+01
2.591564853639e+01
2.550047285734e+01
2.590901737897e+01
2.547970939303e+01
2.589841709674e+01
2.551852817484e+01
2.589804269826e+01
2.549516706690e+01
2.042344631385e+01
2.670340674370e+01
2.670616547844e+01
2.667961543364e+01
2.672546042258e+01
2.868454668037e+01
2.882539272101e+01
2.911064503882e+01
2.840008294334e+01
2.658404781018e+01
2.722396157517e+01
2.923628603465e+01
2.931848454884e+01
2.717305538768e+01
2.656311392735e+01
2.642954373990e+01
2.633662263126e+01
2.654839519051e+01
2.659003891095e+01
2.721257965763e+01
2.923206073178e+01
2.643180980905e+01
2.633992612757e+01
2.654549253409e+01
2.659753266082e+01
2.725305981727e+01
2.912269785176e+01
2.643430843745e+01
2.633883059282e+01
2.654883093192e+01
2.654736787914e+01
2.633960384653e+01
2.643208635379e+01
2.687083467740e+01
2.657378055510e+01
2.686589644462e+01
2.655262280791e+01
2.685685196205e+01
2.658926960144e+01
2.685649026109e+01
2.657038406618e+01
2.077956068690e+01
2.703307490217e+01
2.703582323255e+01
2.700971139445e+01
2.705534012208e+01
2.878143763160e+01
2.891896088936e+01
2.919675130032e+01
2.850506753987e+01
2.690079415517e+01
2.749211534315e+01
2.940235335567e+01
2.948153299813e+01
2.744380991640e+01
2.687995738375e+01
2.675053178046e+01
2.664246636332e+01
2.686456100314e+01
2.690676272775e+01
2.748105390416e+01
2.939885276932e+01
2.675264086974e+01
2.664564563703e+01
2.686209674723e+01
2.691505551613e+01
2.751878455260e+01
2.929306994055e+01
2.675533157585e+01
2.664466911340e+01
2.686490007854e+01
2.686352715347e+01
2.664539500065e+01
2.675308760329e+01
2.714494106724e+01
2.687710372037e+01
2.714020174630e+01
2.685578679739e+01
2.713099314585e+01
2.689187161878e+01
2.713105571822e+01
2.687424468890e+01
2.092158106465e+01
2.708325334801e+01
2.708599992271e+01
2.706062625371e+01
2.710511742341e+01
2.874964542264e+01
2.888392966265e+01
2.915623495043e+01
2.847761106949e+01
2.694740802178e+01
2.750888448624e+01
2.936001046980e+01
2.943703815359e+01
2.746205435748e+01
2.692711422241e+01
2.680116884837e+01
2.668754748572e+01
2.691097245408e+01
2.695325395014e+01
2.749808763059e+01
2.935621712059e+01
2.680316493062e+01
2.669060837680e+01
2.690873517613e+01
2.696148869231e+01
2.753450369246e+01
2.925282125578e+01
2.680584624953e+01
2.668962421113e+01
2.691129475562e+01
2.690998817533e+01
2.669035856182e+01
2.680363429160e+01
2.716692004760e+01
2.691795837376e+01
2.716245223780e+01
2.689681514351e+01
2.715350181150e+01
2.693218001616e+01
2.715359837596e+01
2.691537029216e+01
2.101493193779e+01
2.708508616248e+01
2.708780844474e+01
2.706257709482e+01
2.710693273145e+01
2.871037026081e+01
2.884363859036e+01
2.911379599193e+01
2.844056203381e+01
2.694787315518e+01
2.749924970196e+01
2.932770034048e+01
2.940398277366e+01
2.745298183603e+01
2.692769499958e+01
2.680308860168e+01
2.668760779301e+01
2.691163018669e+01
2.695368457156e+01
2.748853861839e+01
2.932400204751e+01
2.680503345101e+01
2.669064334191e+01
2.690946890259e+01
2.696200112730e+01
2.752440959320e+01
2.922152016210e+01
2.680773356238e+01
2.668968698968e+01
2.691191969559e+01
2.691063633735e+01
2.669040172698e+01
2.680554785783e+01
2.715944840812e+01
2.691644692985e+01
2.715503478161e+01
2.689537672091e+01
2.714611365019e+01
2.693049773622e+01
2.714626885235e+01
2.691396548094e+01
2.101223381570e+01
2.711459087668e+01
2.711721893226e+01
2.709450877975e+01
2.713524730024e+01
2.845625343223e+01
2.857567906671e+01
2.882136779793e+01
2.820737074799e+01
2.696376872890e+01
2.740092513790e+01
2.900388726364e+01
2.907166511845e+01
2.736022008083e+01
2.694561080533e+01
2.683498144006e+01
2.669848219580e+01
2.692753355920e+01
2.696910839127e+01
2.739121033398e+01
2.899925150688e+01
2.683641470313e+01
2.670110587913e+01
2.692623911608e+01
2.697730802092e+01
2.742208024633e+01
2.890660282928e+01
2.683912934349e+01
2.670019197689e+01
2.692768084547e+01
2.692664932273e+01
2.670087679361e+01
2.683715785096e+01
2.708095353820e+01
2.691036136799e+01
2.707751245017e+01
2.689000082318e+01
2.706947579199e+01
2.692235249737e+01
2.706982789555e+01
2.690896658896e+01
2.139695129175e+01
2.714876741711e+01
2.715131333202e+01
2.713051297543e+01
2.716848851325e+01
2.826106793963e+01
2.837013532461e+01
2.859720021695e+01
2.802845078152e+01
2.698864084344e+01
2.734094186912e+01
2.876989527520e+01
2.883119987265e+01
2.730454786821e+01
2.697198223124e+01
2.687199066396e+01
2.672088107262e+01
2.695263392061e+01
2.699362093532e+01
2.733199914786e+01
2.876475305468e+01
2.687305450326e+01
2.672319680422e+01
2.695197428559e+01
2.700176935094e+01
2.735899154514e+01
2.867967887671e+01
2.687577670558e+01
2.672233060453e+01
2.695267410130e+01
2.695183024010e+01
2.672298514595e+01
2.687396076068e+01
2.703732718567e+01
2.691952617826e+01
2.703458512802e+01
2.689977904259e+01
2.702719048316e+01
2.692997113955e+01
2.702771524148e+01
2.691892523176e+01
2.166515393310e+01
2.718349054716e+01
2.718596862166e+01
2.716672117641e+01
2.720240894372e+01
2.811822844969e+01
2.821893925520e+01
2.843097920042e+01
2.789874280640e+01
2.701678606635e+01
2.730270221135e+01
2.859364932807e+01
2.864978251931e+01
2.726972946186e+01
2.700134734889e+01
2.690985265605e+01
2.674802089674e+01
2.698104618930e+01
2.702147173117e+01
2.729438203344e+01
2.858810644035e+01
2.691063047679e+01
2.675009121059e+01
2.698087648618e+01
2.702953745372e+01
2.731832247797e+01
2.850911734447e+01
2.691334608237e+01
2.674926030408e+01
2.698100720620e+01
2.698031119584e+01
2.674989198945e+01
2.691165379049e+01
2.701259419226e+01
2.693583807704e+01
2.701040426136e+01
2.691662634214e+01
2.700353731497e+01
2.694505699285e+01
2.700418540222e+01
2.693584683327e+01
2.190078201735e+01
2.721690831513e+01
2.721933114425e+01
2.720129367626e+01
2.723517469088e+01
2.801889853900e+01
2.811311000457e+01
2.831346065106e+01
2.780964467392e+01
2.704575636427e+01
2.728155896359e+01
2.846693719645e+01
2.851908932182e+01
2.725120363635e+01
2.703127176061e+01
2.694633402254e+01
2.677693460933e+01
2.701029974286e+01
2.705020998641e+01
2.727372169913e+01
2.846109326828e+01
2.694689670617e+01
2.677881730381e+01
2.701049481866e+01
2.705818455187e+01
2.729534423242e+01
2.838681645665e+01
2.694959889575e+01
2.677801285922e+01
2.701020268281e+01
2.700961925900e+01
2.677862661782e+01
2.694800300670e+01
2.700217037062e+01
2.695621185120e+01
2.700040003038e+01
2.693744612945e+01
2.699394899013e+01
2.696449360789e+01
2.699468264066e+01
2.695667344147e+01
2.209910186213e+01
2.724730025506e+01
2.724968047686e+01
2.723252665139e+01
2.726506591649e+01
2.795872631743e+01
2.804818398181e+01
2.823999130838e+01
2.775695654893e+01
2.707353150430e+01
2.727423525183e+01
2.838455237024e+01
2.843384203416e+01
2.724574020208e+01
2.705974946759e+01
2.697954203259e+01
2.680534023368e+01
2.703834988714e+01
2.707781290480e+01
2.726674808440e+01
2.837849050008e+01
2.697995405072e+01
2.680708932838e+01
2.703879565422e+01
2.708569245977e+01
2.728674064631e+01
2.830762786328e+01
2.698263846017e+01
2.680630271095e+01
2.703821371507e+01
2.703771010888e+01
2.680690338496e+01
2.698111374948e+01
2.700281773871e+01
2.697828482656e+01
2.700134503788e+01
2.695987082590e+01
2.699520374111e+01
2.698589902761e+01
2.699598850008e+01
2.697905668192e+01
2.226119766236e+01
2.727356893616e+01
2.727591888523e+01
2.725933501646e+01
2.729098755130e+01
2.793418239170e+01
2.802054060905e+01
2.820679708252e+01
2.773727130418e+01
2.709875521649e+01
2.727828912043e+01
2.834238978319e+01
2.838987602944e+01
2.725093704378e+01
2.708543607789e+01
2.700823472343e+01
2.683166003408e+01
2.706382444121e+01
2.710292196145e+01
2.727102474607e+01
2.833618010416e+01
2.700855458730e+01
2.683332664129e+01
2.706441630012e+01
2.711070746302e+01
2.729003535319e+01
2.826749499261e+01
2.701121915872e+01
2.683254973837e+01
2.706366566001e+01
2.706321139983e+01
2.683314166942e+01
2.700974261287e+01
2.701212592783e+01
2.700040461199e+01
2.701083782725e+01
2.698224404681e+01
2.700490488323e+01
2.700760437206e+01
2.700570938718e+01
2.700135684507e+01
2.238770935409e+01
2.729524750767e+01
2.729757934425e+01
2.728126066814e+01
2.731247213519e+01
2.794351334637e+01
2.802836766130e+01
2.821196893628e+01
2.774891050604e+01
2.712082781916e+01
2.729249909364e+01
2.833824621201e+01
2.838495168075e+01
2.726559626441e+01
2.710773999794e+01
2.703188198140e+01
2.685518659379e+01
2.708611520812e+01
2.712493587214e+01
2.728533379905e+01
2.833195049244e+01
2.703216489148e+01
2.685681996558e+01
2.708675386594e+01
2.713262969485e+01
2.730398767498e+01
2.826424459750e+01
2.703480852555e+01
2.685604478867e+01
2.708594915540e+01
2.708551507356e+01
2.685663217097e+01
2.703335839828e+01
2.702890519445e+01
2.702181175057e+01
2.702769404096e+01
2.700380516337e+01
2.702187157029e+01
2.702884033400e+01
2.702266577133e+01
2.702282142274e+01
2.247955770712e+01
2.731246405216e+01
2.731478956093e+01
2.729841391358e+01
2.732965660559e+01
2.798765045287e+01
2.807268206687e+01
2.825665572036e+01
2.779271299260e+01
2.713998527138e+01
2.731779213378e+01
2.837416181057e+01
2.842115704327e+01
2.729061750090e+01
2.712688340666e+01
2.705063808296e+01
2.687623556703e+01
2.710547577871e+01
2.714409318827e+01
2.731059695078e+01
2.836785814824e+01
2.705094214953e+01
2.687788821569e+01
2.710605637375e+01
2.715170198699e+01
2.732954245872e+01
2.829988247491e+01
2.705356415295e+01
2.687710789468e+01
2.710531753210e+01
2.710487322010e+01
2.687769390460e+01
2.705211779197e+01
2.705402014489e+01
2.704289525255e+01
2.705277078630e+01
2.702494213714e+01
2.704695393884e+01
2.705000795961e+01
2.704770844268e+01
2.704383278225e+01
2.253367143648e+01
2.731307642301e+01
2.731540221670e+01
2.729898756798e+01
2.733027356625e+01
2.799825149232e+01
2.808344142269e+01
2.826773023118e+01
2.780302243662e+01
2.714114275347e+01
2.732154851906e+01
2.838282199618e+01
2.842996849069e+01
2.729425067710e+01
2.712801509992e+01
2.705150883725e+01
2.687781155057e+01
2.710665648105e+01
2.714525640824e+01
2.731433678699e+01
2.837652070335e+01
2.705182401689e+01
2.687947170172e+01
2.710721571896e+01
2.715284585754e+01
2.733340453278e+01
2.830838630764e+01
2.705444106826e+01
2.687868861567e+01
2.710650350104e+01
2.710605301599e+01
2.687927599793e+01
2.705299208896e+01
2.705749423715e+01
2.704469995944e+01
2.705622695381e+01
2.702674792957e+01
2.705040090587e+01
2.705185369232e+01
2.705114361913e+01
2.704560890652e+01
2.253959148767e+01
2.731749513287e+01
2.731982179122e+01
2.730333408161e+01
2.733472785119e+01
2.801286448980e+01
2.809850126492e+01
2.828355126135e+01
2.781700075519e+01
2.714607702983e+01
2.732962971122e+01
2.839799603747e+01
2.844540584128e+01
2.730215028381e+01
2.713291047325e+01
2.705611676155e+01
2.688308455118e+01
2.711166216861e+01
2.715019988411e+01
2.732238318804e+01
2.839168956355e+01
2.705643973972e+01
2.688476145586e+01
2.711219465925e+01
2.715777505990e+01
2.734161635079e+01
2.832322971761e+01
2.705905425113e+01
2.688397710064e+01
2.711150391544e+01
2.711105124204e+01
2.688456045487e+01
2.705760623614e+01
2.706490501055e+01
2.705029090895e+01
2.706361476885e+01
2.703232818431e+01
2.705777943830e+01
2.705750131435e+01
2.705850882108e+01
2.705117455536e+01
2.254666168085e+01
2.738964222949e+01
2.739199044280e+01
2.737562788156e+01
2.740685595571e+01
2.806905663537e+01
2.815416040726e+01
2.833854145040e+01
2.787353714677e+01
2.721621731851e+01
2.739547707794e+01
2.845569357105e+01
2.850282795359e+01
2.736824433965e+01
2.720305041759e+01
2.712605569297e+01
2.695078441613e+01
2.718126006458e+01
2.722034888223e+01
2.738826079212e+01
2.844942031915e+01
2.712637596373e+01
2.695241651198e+01
2.718183514835e+01
2.722802435061e+01
2.740726851370e+01
2.838131181030e+01
2.712900520490e+01
2.695163161885e+01
2.718114972513e+01
2.718069688195e+01
2.695225443240e+01
2.712754108832e+01
2.713074903670e+01
2.711872267029e+01
2.712947226141e+01
2.710064988002e+01
2.712359912247e+01
2.712587734170e+01
2.712438034662e+01
2.711964665138e+01
2.257521062067e+01
2.773814455679e+01
2.774021612856e+01
2.772278374845e+01
2.775637808892e+01
2.836551972298e+01
2.845621516279e+01
2.864931162107e+01
2.816333668847e+01
2.756985876701e+01
2.776611090409e+01
2.885319403956e+01
2.890237345847e+01
2.773807572482e+01
2.755639262210e+01
2.748025120030e+01
2.731191465016e+01
2.753779587312e+01
2.757394680858e+01
2.775869128456e+01
2.884745158813e+01
2.748035310599e+01
2.731368862869e+01
2.753816501352e+01
2.758189055017e+01
2.777837705180e+01
2.877671454773e+01
2.748299011993e+01
2.731307618791e+01
2.753742090707e+01
2.753694398742e+01
2.731353075692e+01
2.748187265948e+01
2.750105303571e+01
2.747777084041e+01
2.749956084000e+01
2.745999597523e+01
2.749370558010e+01
2.748532218211e+01
2.749449965180e+01
2.747869767387e+01
2.262988342632e+01
2.852638599812e+01
2.852763451013e+01
2.851680094301e+01
2.853811150237e+01
2.862385117625e+01
2.868840214158e+01
2.883809400770e+01
2.845638874281e+01
2.841582590796e+01
2.850224818124e+01
2.915213296638e+01
2.918581898413e+01
2.848494997019e+01
2.840818351201e+01
2.836681445423e+01
2.825227969350e+01
2.839735603702e+01
2.841812020768e+01
2.849747129882e+01
2.914714207483e+01
2.836641715269e+01
2.825341879207e+01
2.839784556700e+01
2.842289050803e+01
2.850939076591e+01
2.909651573238e+01
2.836794492543e+01
2.825296879288e+01
2.839674415304e+01
2.839662567350e+01
2.825310926528e+01
2.836760139569e+01
2.833322622124e+01
2.834948132445e+01
2.833301575640e+01
2.833845514629e+01
2.833053507043e+01
2.835358593121e+01
2.833059673738e+01
2.835056193813e+01
2.311959578001e+01
2.875876986334e+01
2.875977224933e+01
2.875481415722e+01
2.876497140047e+01
2.916140117884e+01
2.917508566289e+01
2.919105957710e+01
2.915566431317e+01
2.867312203343e+01
2.867535564286e+01
2.895109070287e+01
2.895909496581e+01
2.866866417753e+01
2.866837828572e+01
2.864214264531e+01
2.855218692291e+01
2.865647542071e+01
2.867482489216e+01
2.867326243668e+01
2.894910858079e+01
2.864230950126e+01
2.855257621476e+01
2.865733904873e+01
2.867837806429e+01
2.867688075334e+01
2.893763189232e+01
2.864371864722e+01
2.855239385182e+01
2.865657097319e+01
2.865648188876e+01
2.855269462938e+01
2.864283257314e+01
2.858053042650e+01
2.861630893318e+01
2.858003844828e+01
2.860890849428e+01
2.857678002957e+01
2.861810695700e+01
2.857793854794e+01
2.861734601691e+01
3.026147612700e+01
2.898840883960e+01
2.898927022883e+01
2.898826202601e+01
2.899064234063e+01
2.900176712842e+01
2.900141863262e+01
2.900241508457e+01
2.899972894757e+01
2.892694234848e+01
2.887429970538e+01
2.890789235443e+01
2.890850105094e+01
2.887375083328e+01
2.892473334467e+01
2.891190175310e+01
2.884503780513e+01
2.891370702576e+01
2.892787044998e+01
2.887370710014e+01
2.890700391539e+01
2.891213962728e+01
2.884490245231e+01
2.891472957832e+01
2.893021388601e+01
2.887271751563e+01
2.890519523031e+01
2.891298073640e+01
2.884467814097e+01
2.891411434410e+01
2.891411135391e+01
2.884508015264e+01
2.891208953376e+01
2.883012036352e+01
2.888088180518e+01
2.883028897991e+01
2.887641947010e+01
2.882847888335e+01
2.888082938290e+01
2.882937276830e+01
2.888174108901e+01
2.883237368015e+01
2.920374046393e+01
2.920434833915e+01
2.920448998391e+01
2.920457451120e+01
2.903884341807e+01
2.903873522166e+01
2.903898269537e+01
2.903784874803e+01
2.916216869806e+01
2.910224396711e+01
2.905942638132e+01
2.905826235854e+01
2.910356584298e+01
2.916115405843e+01
2.915623008362e+01
2.910962942718e+01
2.915371846307e+01
2.916266817893e+01
2.910209842155e+01
2.905902296119e+01
2.915637849067e+01
2.910946644250e+01
2.915455692036e+01
2.916421671458e+01
2.909986216137e+01
2.905920425044e+01
2.915689286426e+01
2.910930833535e+01
2.915393629161e+01
2.915402743757e+01
2.910954987258e+01
2.915624452586e+01
2.908102707476e+01
2.912827921062e+01
2.908135552878e+01
2.912569182327e+01
2.908043971903e+01
2.912774338422e+01
2.908107356812e+01
2.912903974832e+01
2.907091462799e+01
2.939365082547e+01
2.939404094106e+01
2.939428935422e+01
2.939401197888e+01
2.927335129779e+01
2.927274286936e+01
2.927146229699e+01
2.927444385885e+01
2.936785648821e+01
2.932384437961e+01
2.928421500139e+01
2.928301285779e+01
2.932496310065e+01
2.936738084380e+01
2.936561489815e+01
2.933607518580e+01
2.936295304035e+01
2.936813813165e+01
2.932378857507e+01
2.928391875458e+01
2.936570041122e+01
2.933599347615e+01
2.936351892163e+01
2.936902140686e+01
2.932208752018e+01
2.928452034618e+01
2.936601800694e+01
2.933589088310e+01
2.936303033950e+01
2.936312963266e+01
2.933600082415e+01
2.936559699810e+01
2.931199711162e+01
2.934588520704e+01
2.931226774991e+01
2.934439427218e+01
2.931178100028e+01
2.934541308093e+01
2.931216424984e+01
2.934642154801e+01
2.926725554418e+01
2.985984840995e+01
2.985988694057e+01
2.985990474380e+01
2.985977800047e+01
2.985803093536e+01
2.985803499189e+01
2.985806768644e+01
2.985795723135e+01
2.985930879271e+01
2.985867871810e+01
2.985831047152e+01
2.985828947356e+01
2.985868326989e+01
2.985927181594e+01
2.985912367427e+01
2.985848864460e+01
2.985911516466e+01
2.985932955731e+01
2.985867942047e+01
2.985830562022e+01
2.985916622900e+01
2.985850231250e+01
2.985913672450e+01
2.985931714853e+01