# vtk DataFile Version 3.0
Unstructured Grid from OpenGeoSys
ASCII
DATASET UNSTRUCTURED_GRID
FIELD TimesAndCycles 2
TIME 1 1 double
3.600000000000e+03
CYLCE 1 1 long
1
POINTS 1394 double
0.000000000000e+00 0.000000000000e+00 0.000000000000e+00
5.000000000000e+00 0.000000000000e+00 0.000000000000e+00
5.000000000000e+00 5.000000000000e+00 0.000000000000e+00
0.000000000000e+00 5.000000000000e+00 0.000000000000e+00
2.244234909000e+00 2.244234909000e+00 0.000000000000e+00
2.755765091000e+00 2.244234909000e+00 0.000000000000e+00
2.755765091000e+00 2.755765091000e+00 0.000000000000e+00
2.244234909000e+00 2.755765091000e+00 0.000000000000e+00
7.141316008320e-01 7.141316008320e-01 0.000000000000e+00
1.314642334730e+00 1.314642334730e+00 0.000000000000e+00
1.819609643610e+00 1.819609643610e+00 0.000000000000e+00
1.819609643610e+00 3.180390356390e+00 0.000000000000e+00
1.314642334740e+00 3.685357665260e+00 0.000000000000e+00
7.141316008360e-01 4.285868399160e+00 0.000000000000e+00
0.000000000000e+00 3.750000000000e+00 0.000000000000e+00
0.000000000000e+00 2.500000000000e+00 0.000000000000e+00
0.000000000000e+00 1.250000000000e+00 0.000000000000e+00
4.285868399170e+00 7.141316008320e-01 0.000000000000e+00
3.685357665270e+00 1.314642334730e+00 0.000000000000e+00
3.180390356390e+00 1.819609643610e+00 0.000000000000e+00
1.250000000000e+00 0.000000000000e+00 0.000000000000e+00
2.500000000000e+00 0.000000000000e+00 0.000000000000e+00
3.750000000000e+00 0.000000000000e+00 0.000000000000e+00
4.285868399170e+00 4.285868399170e+00 0.000000000000e+00
3.685357665270e+00 3.685357665270e+00 0.000000000000e+00
3.180390356390e+00 3.180390356390e+00 0.000000000000e+00
5.000000000000e+00 1.250000000000e+00 0.000000000000e+00
5.000000000000e+00 2.500000000000e+00 0.000000000000e+00
5.000000000000e+00 3.750000000000e+00 0.000000000000e+00
3.750000000000e+00 5.000000000000e+00 0.000000000000e+00
2.500000000000e+00 5.000000000000e+00 0.000000000000e+00
1.250000000000e+00 5.000000000000e+00 0.000000000000e+00
9.560744151940e-01 2.677827143250e+00 0.000000000000e+00
6.659597640160e-01 1.438876720610e+00 0.000000000000e+00
2.309219871940e+00 9.522638293400e-01 0.000000000000e+00
3.458157207860e+00 6.354750772000e-01 0.000000000000e+00
4.043925584810e+00 2.322172856750e+00 0.000000000000e+00
4.334040235980e+00 3.561123279390e+00 0.000000000000e+00
2.318530875810e+00 4.048536535600e+00 0.000000000000e+00
3.552396921680e+00 4.370927842320e+00 0.000000000000e+00
2.500000000000e+00 2.500000000000e+00 0.000000000000e+00
0.000000000000e+00 0.000000000000e+00 -5.000000000000e-01
5.000000000000e+00 0.000000000000e+00 -5.000000000000e-01
5.000000000000e+00 5.000000000000e+00 -5.000000000000e-01
0.000000000000e+00 5.000000000000e+00 -5.000000000000e-01
2.244234909000e+00 2.244234909000e+00 -5.000000000000e-01
2.755765091000e+00 2.244234909000e+00 -5.000000000000e-01
2.755765091000e+00 2.755765091000e+00 -5.000000000000e-01
2.244234909000e+00 2.755765091000e+00 -5.000000000000e-01
7.141316008320e-01 7.141316008320e-01 -5.000000000000e-01
1.314642334730e+00 1.314642334730e+00 -5.000000000000e-01
1.819609643610e+00 1.819609643610e+00 -5.000000000000e-01
1.819609643610e+00 3.180390356390e+00 -5.000000000000e-01
1.314642334740e+00 3.685357665260e+00 -5.000000000000e-01
7.141316008360e-01 4.285868399160e+00 -5.000000000000e-01
0.000000000000e+00 3.750000000000e+00 -5.000000000000e-01
0.000000000000e+00 2.500000000000e+00 -5.000000000000e-01
0.000000000000e+00 1.250000000000e+00 -5.000000000000e-01
4.285868399170e+00 7.141316008320e-01 -5.000000000000e-01
3.685357665270e+00 1.314642334730e+00 -5.000000000000e-01
3.180390356390e+00 1.819609643610e+00 -5.000000000000e-01
1.250000000000e+00 0.000000000000e+00 -5.000000000000e-01
2.500000000000e+00 0.000000000000e+00 -5.000000000000e-01
3.750000000000e+00 0.000000000000e+00 -5.000000000000e-01
4.285868399170e+00 4.285868399170e+00 -5.000000000000e-01
3.685357665270e+00 3.685357665270e+00 -5.000000000000e-01
3.180390356390e+00 3.180390356390e+00 -5.000000000000e-01
5.000000000000e+00 1.250000000000e+00 -5.000000000000e-01
5.000000000000e+00 2.500000000000e+00 -5.000000000000e-01
5.000000000000e+00 3.750000000000e+00 -5.000000000000e-01
3.750000000000e+00 5.000000000000e+00 -5.000000000000e-01
2.500000000000e+00 5.000000000000e+00 -5.000000000000e-01
1.250000000000e+00 5.000000000000e+00 -5.000000000000e-01
9.560744151940e-01 2.677827143250e+00 -5.000000000000e-01
6.659597640160e-01 1.438876720610e+00 -5.000000000000e-01
2.309219871940e+00 9.522638293400e-01 -5.000000000000e-01
3.458157207860e+00 6.354750772000e-01 -5.000000000000e-01
4.043925584810e+00 2.322172856750e+00 -5.000000000000e-01
4.334040235980e+00 3.561123279390e+00 -5.000000000000e-01
2.318530875810e+00 4.048536535600e+00 -5.000000000000e-01
3.552396921680e+00 4.370927842320e+00 -5.000000000000e-01
2.500000000000e+00 2.500000000000e+00 -5.000000000000e-01
0.000000000000e+00 0.000000000000e+00 -1.000000000000e+00
5.000000000000e+00 0.000000000000e+00 -1.000000000000e+00
5.000000000000e+00 5.000000000000e+00 -1.000000000000e+00
0.000000000000e+00 5.000000000000e+00 -1.000000000000e+00
2.244234909000e+00 2.244234909000e+00 -1.000000000000e+00
2.755765091000e+00 2.244234909000e+00 -1.000000000000e+00
2.755765091000e+00 2.755765091000e+00 -1.000000000000e+00
2.244234909000e+00 2.755765091000e+00 -1.000000000000e+00
7.141316008320e-01 7.141316008320e-01 -1.000000000000e+00
1.314642334730e+00 1.314642334730e+00 -1.000000000000e+00
1.819609643610e+00 1.819609643610e+00 -1.000000000000e+00
1.819609643610e+00 3.180390356390e+00 -1.000000000000e+00
1.314642334740e+00 3.685357665260e+00 -1.000000000000e+00
7.141316008360e-01 4.285868399160e+00 -1.000000000000e+00
0.000000000000e+00 3.750000000000e+00 -1.000000000000e+00
0.000000000000e+00 2.500000000000e+00 -1.000000000000e+00
0.000000000000e+00 1.250000000000e+00 -1.000000000000e+00
4.285868399170e+00 7.141316008320e-01 -1.000000000000e+00
3.685357665270e+00 1.314642334730e+00 -1.000000000000e+00
3.180390356390e+00 1.819609643610e+00 -1.000000000000e+00
1.250000000000e+00 0.000000000000e+00 -1.000000000000e+00
2.500000000000e+00 0.000000000000e+00 -1.000000000000e+00
3.750000000000e+00 0.000000000000e+00 -1.000000000000e+00
4.285868399170e+00 4.285868399170e+00 -1.000000000000e+00
3.685357665270e+00 3.685357665270e+00 -1.000000000000e+00
3.180390356390e+00 3.180390356390e+00 -1.000000000000e+00
5.000000000000e+00 1.250000000000e+00 -1.000000000000e+00
5.000000000000e+00 2.500000000000e+00 -1.000000000000e+00
5.000000000000e+00 3.750000000000e+00 -1.000000000000e+00
3.750000000000e+00 5.000000000000e+00 -1.000000000000e+00
2.500000000000e+00 5.000000000000e+00 -1.000000000000e+00
1.250000000000e+00 5.000000000000e+00 -1.000000000000e+00
9.560744151940e-01 2.677827143250e+00 -1.000000000000e+00
6.659597640160e-01 1.438876720610e+00 -1.000000000000e+00
2.309219871940e+00 9.522638293400e-01 -1.000000000000e+00
3.458157207860e+00 6.354750772000e-01 -1.000000000000e+00
4.043925584810e+00 2.322172856750e+00 -1.000000000000e+00
4.334040235980e+00 3.561123279390e+00 -1.000000000000e+00
2.318530875810e+00 4.048536535600e+00 -1.000000000000e+00
3.552396921680e+00 4.370927842320e+00 -1.000000000000e+00
2.500000000000e+00 2.500000000000e+00 -1.000000000000e+00
0.000000000000e+00 0.000000000000e+00 -3.000000000000e+00
5.000000000000e+00 0.000000000000e+00 -3.000000000000e+00
5.000000000000e+00 5.000000000000e+00 -3.000000000000e+00
0.000000000000e+00 5.000000000000e+00 -3.000000000000e+00
2.244234909000e+00 2.244234909000e+00 -3.000000000000e+00
2.755765091000e+00 2.244234909000e+00 -3.000000000000e+00
2.755765091000e+00 2.755765091000e+00 -3.000000000000e+00
2.244234909000e+00 2.755765091000e+00 -3.000000000000e+00
7.141316008320e-01 7.141316008320e-01 -3.000000000000e+00
1.314642334730e+00 1.314642334730e+00 -3.000000000000e+00
1.819609643610e+00 1.819609643610e+00 -3.000000000000e+00
1.819609643610e+00 3.180390356390e+00 -3.000000000000e+00
1.314642334740e+00 3.685357665260e+00 -3.000000000000e+00
7.141316008360e-01 4.285868399160e+00 -3.000000000000e+00
0.000000000000e+00 3.750000000000e+00 -3.000000000000e+00
0.000000000000e+00 2.500000000000e+00 -3.000000000000e+00
0.000000000000e+00 1.250000000000e+00 -3.000000000000e+00
4.285868399170e+00 7.141316008320e-01 -3.000000000000e+00
3.685357665270e+00 1.314642334730e+00 -3.000000000000e+00
3.180390356390e+00 1.819609643610e+00 -3.000000000000e+00
1.250000000000e+00 0.000000000000e+00 -3.000000000000e+00
2.500000000000e+00 0.000000000000e+00 -3.000000000000e+00
3.750000000000e+00 0.000000000000e+00 -3.000000000000e+00
4.285868399170e+00 4.285868399170e+00 -3.000000000000e+00
3.685357665270e+00 3.685357665270e+00 -3.000000000000e+00
3.180390356390e+00 3.180390356390e+00 -3.000000000000e+00
5.000000000000e+00 1.250000000000e+00 -3.000000000000e+00
5.000000000000e+00 2.500000000000e+00 -3.000000000000e+00
5.000000000000e+00 3.750000000000e+00 -3.000000000000e+00
3.750000000000e+00 5.000000000000e+00 -3.000000000000e+00
2.500000000000e+00 5.000000000000e+00 -3.000000000000e+00
1.250000000000e+00 5.000000000000e+00 -3.000000000000e+00
9.560744151940e-01 2.677827143250e+00 -3.000000000000e+00
6.659597640160e-01 1.438876720610e+00 -3.000000000000e+00
2.309219871940e+00 9.522638293400e-01 -3.000000000000e+00
3.458157207860e+00 6.354750772000e-01 -3.000000000000e+00
4.043925584810e+00 2.322172856750e+00 -3.000000000000e+00
4.334040235980e+00 3.561123279390e+00 -3.000000000000e+00
2.318530875810e+00 4.048536535600e+00 -3.000000000000e+00
3.552396921680e+00 4.370927842320e+00 -3.000000000000e+00
2.500000000000e+00 2.500000000000e+00 -3.000000000000e+00
0.000000000000e+00 0.000000000000e+00 -5.000000000000e+00
5.000000000000e+00 0.000000000000e+00 -5.000000000000e+00
5.000000000000e+00 5.000000000000e+00 -5.000000000000e+00
0.000000000000e+00 5.000000000000e+00 -5.000000000000e+00
2.244234909000e+00 2.244234909000e+00 -5.000000000000e+00
[...]
POINT_DATA 1394
SCALARS TEMPERATURE1 double 1
LOOKUP_TABLE default
1.000000000000e+01
1.000000000000e+01
1.000000000000e+01
1.000000000000e+01
1.000000000000e+01
1.000000000000e+01
1.000000000000e+01
1.000000000000e+01
1.000000000000e+01
1.000000000000e+01
1.000000000000e+01
1.000000000000e+01
1.000000000000e+01
1.000000000000e+01
1.000000000000e+01
1.000000000000e+01
1.000000000000e+01
1.000000000000e+01
1.000000000000e+01
1.000000000000e+01
1.000000000000e+01
1.000000000000e+01
1.000000000000e+01
1.000000000000e+01
1.000000000000e+01
1.000000000000e+01
1.000000000000e+01
1.000000000000e+01
1.000000000000e+01
1.000000000000e+01
1.000000000000e+01
1.000000000000e+01
1.000000000000e+01
1.000000000000e+01
1.000000000000e+01
1.000000000000e+01
1.000000000000e+01
1.000000000000e+01
1.000000000000e+01
1.000000000000e+01
1.000000000000e+01
1.729020494213e+01
1.728938265402e+01
1.728175089015e+01
1.728503225483e+01
2.116682216461e+01
2.119305119158e+01
2.128648071490e+01
2.104519259509e+01
1.756379119838e+01
1.844297892644e+01
2.001014365987e+01
2.005575609584e+01
1.840236271743e+01
1.756216958799e+01
1.749971090426e+01
1.782494074926e+01
1.758509266565e+01
1.756360084199e+01
1.843929191949e+01
2.000441148119e+01
1.750267787139e+01
1.782692580775e+01
1.757708732558e+01
1.754994799748e+01
1.848359916054e+01
1.995764703549e+01
1.749910717093e+01
1.782549873220e+01
1.758706093738e+01
1.758494551602e+01
1.782595972493e+01
1.749972608442e+01
1.841118656092e+01
1.783851316459e+01
1.840700359849e+01
1.784561142429e+01
1.840928599658e+01
1.785028711623e+01
1.840226280108e+01
1.782771488571e+01
1.925118630537e+01
2.510088575015e+01
2.509909133832e+01
2.508450854398e+01
2.509022381556e+01
3.706993816934e+01
3.702830474909e+01
3.695130195364e+01
3.716037270091e+01
2.565388774265e+01
2.745754967120e+01
3.104696285447e+01
3.111109345198e+01
2.736525424550e+01
2.565438657937e+01
2.552234399228e+01
2.616643643515e+01
2.569075243038e+01
2.565388019031e+01
2.744946568441e+01
3.102225132910e+01
2.552799693927e+01
2.617085575709e+01
2.567439211039e+01
2.561952711488e+01
2.755078645918e+01
3.097547616007e+01
2.552138949029e+01
2.616762203659e+01
2.569493481642e+01
2.569076940883e+01
2.616869690637e+01
2.552302144820e+01
2.732068953327e+01
2.620368322025e+01
2.731150734011e+01
2.621602537669e+01
2.731385390147e+01
2.622870500137e+01
2.729931931168e+01
2.618249375791e+01
5.142942048569e+01
2.922037236230e+01
2.921800564556e+01
2.920364879152e+01
2.920793457132e+01
4.060734555702e+01
4.058311364600e+01
4.054717956941e+01
4.065082253697e+01
2.982853590690e+01
3.172825220274e+01
3.528509186466e+01
3.535474314890e+01
3.163702014369e+01
2.982888368463e+01
2.969793649873e+01
3.040961035768e+01
2.987451540797e+01
2.982803880579e+01
3.172066365936e+01
3.526506692053e+01
2.970395963702e+01
3.041396705285e+01
2.985693282461e+01
2.979351346389e+01
3.182201480438e+01
3.521191564639e+01
2.969660368970e+01
3.041099857321e+01
2.987887939264e+01
2.987443468411e+01
3.041202227311e+01
2.969855892257e+01
3.163902203243e+01
3.042828102465e+01
3.162903021805e+01
3.044413076104e+01
3.163215061588e+01
3.045415704962e+01
3.161728559189e+01
3.040556307810e+01
5.219620215023e+01
3.119365756814e+01
3.119119994171e+01
3.117817010990e+01
3.118225876128e+01
4.162355714250e+01
4.159958480383e+01
4.156082097151e+01
4.167116131299e+01
3.175937032757e+01
3.349808341979e+01
3.673209842483e+01
3.679472139042e+01
3.341507512158e+01
3.176021820096e+01
3.164408565801e+01
3.230511412955e+01
3.180430313065e+01
3.175869578188e+01
3.349129802718e+01
3.671391978430e+01
3.164937114722e+01
3.230908111301e+01
3.178807525614e+01
3.172683787012e+01
3.358392872004e+01
3.666711717291e+01
3.164253134487e+01
3.230649948792e+01
3.180816729405e+01
3.180410373809e+01
3.230734620225e+01
3.164467756967e+01
3.342509351281e+01
3.231429678202e+01
3.341590323177e+01
3.232962118698e+01
3.341905636890e+01
3.233791836720e+01
3.340540814254e+01
3.229354003017e+01
5.251016155143e+01
3.194621621721e+01
3.194388546897e+01
3.193122564766e+01
3.193537283100e+01
4.203046233888e+01
4.200734157949e+01
4.197080768007e+01
4.207487103254e+01
3.248902314221e+01
3.416511523501e+01
3.729469295479e+01
3.735539868980e+01
3.408477902737e+01
3.248976578349e+01
3.237698040655e+01
3.301133609073e+01
3.253171269851e+01
3.248841250430e+01
3.415850192460e+01
3.727693654247e+01
3.238206911305e+01
3.301516420240e+01
3.251609549834e+01
3.245773079054e+01
3.424804941491e+01
3.723132563152e+01
3.237550250054e+01
3.301265388520e+01
3.253545701971e+01
3.253153777678e+01
3.301349271497e+01
3.237755604756e+01
3.409120547976e+01
3.302217843751e+01
3.408236495125e+01
3.303670401568e+01
3.408536267668e+01
3.304498988375e+01
3.407219759699e+01
3.300219468136e+01
5.253649280331e+01
3.217716641699e+01
3.217488910263e+01
3.216246749976e+01
3.216639057498e+01
4.209795650816e+01
4.207525342237e+01
4.203948507917e+01
4.214140784308e+01
3.271208621754e+01
3.436306887298e+01
3.744261952993e+01
3.750237330967e+01
3.428402172172e+01
3.271280162590e+01
3.260167361333e+01
3.322683882016e+01
3.275408410151e+01
3.271149001010e+01
3.435657318172e+01
3.742520789930e+01
3.260672224072e+01
3.323061228782e+01
3.273870515949e+01
3.268126322320e+01
3.444468255438e+01
3.738031815749e+01
3.260025011935e+01
3.322813006921e+01
3.275778039318e+01
3.275391864873e+01
3.322895420946e+01
3.260223200215e+01
3.429097150801e+01
3.323745573917e+01
3.428226792152e+01
3.325179180212e+01
3.428521410134e+01
3.325990701369e+01
3.427224489038e+01
3.321774791461e+01
5.246197401928e+01
3.221739433190e+01
3.221514057575e+01
3.220279356694e+01
3.220666647381e+01
4.207735252811e+01
4.205478086453e+01
4.201915142670e+01
4.212065461616e+01
3.274883375991e+01
3.438933230672e+01
3.744977503168e+01
3.750913875617e+01
3.431077099809e+01
3.274953338351e+01
3.263906847316e+01
3.326015952272e+01
3.279052279472e+01
3.274824709369e+01
3.438287760953e+01
3.743246243947e+01
3.264409906934e+01
3.326391643803e+01
3.277524701421e+01
3.271819834920e+01
3.447042700244e+01
3.738785927516e+01
3.263767018607e+01
3.326144333159e+01
3.279419323502e+01
3.279035537213e+01
3.326225713668e+01
3.263962109752e+01
3.431755784441e+01
3.327080031768e+01
3.430891628603e+01
3.328503941409e+01
3.431183827472e+01
3.329310524267e+01
3.429894469826e+01
3.325121117152e+01
5.237086374311e+01
3.194421366892e+01
3.194202572230e+01
3.193001357481e+01
3.193341655710e+01
4.159722263274e+01
4.157535240362e+01
4.154220145000e+01
4.163690369220e+01
3.246820776761e+01
3.408148633767e+01
3.708186268307e+01
3.714029420288e+01
3.400445104079e+01
3.246890483935e+01
3.236050721717e+01
3.297285643275e+01
3.250930737079e+01
3.246762055025e+01
3.407518925212e+01
3.706503587664e+01
3.236552269212e+01
3.297655436672e+01
3.249428599428e+01
3.243803433190e+01
3.416106058869e+01
3.702101991754e+01
3.235917269866e+01
3.297410286458e+01
3.251292815090e+01
3.250915241244e+01
3.297489324565e+01
3.236102010940e+01
3.401329053793e+01
3.298250832604e+01
3.400482115552e+01
3.299664524607e+01
3.400774220022e+01
3.300438106737e+01
3.399503293318e+01
3.296318139984e+01
5.176285486588e+01
3.170792096415e+01
3.170578744697e+01
3.169404513117e+01
3.169707864154e+01
4.119365684646e+01
4.117236013221e+01
4.114099531617e+01
4.123079758005e+01
3.222567015501e+01
3.381652832284e+01
3.676795906962e+01
3.682559787899e+01
3.374074112144e+01
3.222636115544e+01
3.211963650341e+01
3.272466058469e+01
3.226626583391e+01
3.222508487600e+01
3.381035891111e+01
3.675152179315e+01
3.212463818243e+01
3.272831061629e+01
3.225145450527e+01
3.219588294546e+01
3.389485497810e+01
3.670802777297e+01
3.211835603385e+01
3.272587735244e+01
3.226984511512e+01
3.226612110294e+01
3.272664889115e+01
3.212011891545e+01
3.375112712538e+01
3.273357710634e+01
3.374279601106e+01
3.274761968950e+01
3.374570810450e+01
3.275509855088e+01
3.373315481788e+01
3.271447007787e+01
5.123670364218e+01
3.153095761525e+01
3.152887112030e+01
3.151736995872e+01
3.152009289524e+01
4.086488243793e+01
4.084409004661e+01
4.081429179493e+01
4.089979250667e+01
3.204286755388e+01
3.361303725151e+01
3.651988708435e+01
3.657679741837e+01
3.353838768451e+01
3.204355477795e+01
3.193836525810e+01
3.253654208083e+01
3.208299764217e+01
3.204228368618e+01
3.360698206692e+01
3.650379664962e+01
3.194334730614e+01
3.254014647810e+01
3.206837926281e+01
3.201344017828e+01
3.369022594117e+01
3.646078719290e+01
3.193712901143e+01
3.253773214524e+01
3.208653837971e+01
3.208286226758e+01
3.253848785716e+01
3.193882164973e+01
3.355007044029e+01
3.254481910659e+01
3.354186457491e+01
3.255876654615e+01
3.354476714003e+01
3.256602080450e+01
3.353236006471e+01
3.252591998894e+01
5.079439955743e+01
3.139599285280e+01
3.139394537431e+01
3.138264787946e+01
3.138511949821e+01
4.060071368349e+01
4.058034198482e+01
4.055181986021e+01
4.063381360211e+01
3.190281660574e+01
3.345513890842e+01
3.632389893133e+01
3.638017899062e+01
3.338146227807e+01
3.190350139899e+01
3.179962935306e+01
3.239184228132e+01
3.194254291214e+01
3.190223398476e+01
3.344918016546e+01
3.630809935584e+01
3.180459083857e+01
3.239540669643e+01
3.192809056900e+01
3.187370146021e+01
3.353135361424e+01
3.626551442424e+01
3.179842855202e+01
3.239300977894e+01
3.194605016772e+01
3.194241558088e+01
3.239375265747e+01
3.180006457366e+01
3.339418040022e+01
3.239959457821e+01
3.338608107280e+01
3.241345479944e+01
3.338897407106e+01
3.242052312849e+01
3.337669460427e+01
3.238087777043e+01
5.043075700241e+01
3.130141207075e+01
3.129939572076e+01
3.128826469029e+01
3.129054230600e+01
4.039931893696e+01
4.037928603229e+01
4.035176831588e+01
4.043099902092e+01
3.180391530074e+01
3.334124935475e+01
3.617838719936e+01
3.623413729862e+01
3.326838124901e+01
3.180459881440e+01
3.170182637566e+01
3.228897395919e+01
3.184330052146e+01
3.180333371468e+01
3.333536941541e+01
3.616282383620e+01
3.170676691016e+01
3.229250412749e+01
3.182898718873e+01
3.177506424071e+01
3.341665386695e+01
3.612060039069e+01
3.170065257376e+01
3.229012300671e+01
3.184677943758e+01
3.184317987181e+01
3.229085592719e+01
3.170224511160e+01
3.328188612427e+01
3.229631253095e+01
3.327387480331e+01
3.231009434535e+01
3.327675856009e+01
3.231701434229e+01
3.326458769395e+01
3.227775172945e+01
5.014475540130e+01
3.124398660162e+01
3.124199346038e+01
3.123099084222e+01
3.123313052531e+01
4.025826540202e+01
4.023848790458e+01
4.021170483600e+01
4.028891120952e+01
3.174298777358e+01
3.326834005935e+01
3.608057757945e+01
3.613590350605e+01
3.319610931302e+01
3.174367118886e+01
3.164177162859e+01
3.222481346259e+01
3.178209869744e+01
3.174240696250e+01
3.326252082687e+01
3.606519452315e+01
3.164669168405e+01
3.222831560427e+01
3.176789604849e+01
3.171434937114e+01
3.334310506629e+01
3.602326485668e+01
3.164061659386e+01
3.222594831651e+01
3.178555467805e+01
3.178198326356e+01
3.222667405689e+01
3.164217848660e+01
3.321015870547e+01
3.223184728712e+01
3.320221633497e+01
3.224556127710e+01
3.320509166342e+01
3.225237046286e+01
3.319300894035e+01
3.221341410104e+01
4.993522481472e+01
3.122096871968e+01
3.121899100382e+01
3.120807809073e+01
3.121013474876e+01
4.017549672234e+01
4.015589092494e+01
4.012957272886e+01
4.020549454848e+01
3.171732561216e+01
3.323383948528e+01
3.602813168066e+01
3.608314404055e+01
3.316206914257e+01
3.171800953456e+01
3.161674348886e+01
3.219668662160e+01
3.175622974465e+01
3.171674548147e+01
3.322806240957e+01
3.601287257107e+01
3.162164445644e+01
3.220016726454e+01
3.174210829457e+01
3.168884643781e+01
3.330814147901e+01
3.597116526947e+01
3.161559944309e+01
3.219781152969e+01
3.175966870837e+01
3.175611821294e+01
3.219853300011e+01
3.161714307962e+01
3.317642228747e+01
3.220353134318e+01
3.316852906132e+01
3.221718890830e+01
3.317139659737e+01
3.222392576826e+01
3.315938062959e+01
3.218519551264e+01
4.980152258256e+01
3.123764686289e+01
3.123567695591e+01
3.122481921132e+01
3.122684812774e+01
4.015277625444e+01
4.013326153057e+01
4.010715806954e+01
4.018247694968e+01
3.173203170909e+01
3.324221411722e+01
3.602438458175e+01
3.607917308051e+01
3.317075524097e+01
3.173271850607e+01
3.163190040275e+01
3.220952900624e+01
3.177078823953e+01
3.173145171338e+01
3.323646278015e+01
3.600919680166e+01
3.163678073564e+01
3.221299330103e+01
3.175672413926e+01
3.170366757845e+01
3.331620108807e+01
3.596765489357e+01
3.163075881820e+01
3.221064806260e+01
3.177421408101e+01
3.177067885294e+01
3.221136754736e+01
3.163229706296e+01
3.318517029637e+01
3.221627631725e+01
3.317731026264e+01
3.222988479531e+01
3.318017141072e+01
3.223658296500e+01
3.316820487720e+01
3.219801537897e+01
4.974087790648e+01
3.127298777093e+01
3.127102385038e+01
3.126019081935e+01
3.126219999602e+01
4.017304018054e+01
4.015358042887e+01
4.012748139806e+01
4.020279996492e+01
3.176655629532e+01
3.327452686357e+01
3.605217665224e+01
3.610687213582e+01
3.320319193741e+01
3.176723380471e+01
3.166650592929e+01
3.224321159321e+01
3.180521365325e+01
3.176597986367e+01
3.326878533105e+01
3.603703080052e+01
3.167138305700e+01
3.224666805933e+01
3.179117028847e+01
3.173824887620e+01
3.334838825642e+01
3.599557119637e+01
3.166537137709e+01
3.224432667148e+01
3.180863938532e+01
3.180510916700e+01
3.224504866424e+01
3.166690275900e+01
3.321760857246e+01
3.225004559170e+01
3.320975528193e+01
3.226362658328e+01
3.321260310053e+01
3.227032396034e+01
3.320066131706e+01
3.223181077653e+01
4.974849989660e+01
3.135785304390e+01
3.135588580080e+01
3.134504554350e+01
3.134718983888e+01
4.023187035646e+01
4.021236048979e+01
4.018645752387e+01
4.026114602659e+01
3.184892650940e+01
3.334968470777e+01
3.611844628498e+01
3.617297690360e+01
3.327855031425e+01
3.184962649381e+01
3.174946634208e+01
3.232315357846e+01
3.188747097498e+01
3.184834676282e+01
3.334394873340e+01
3.610324230282e+01
3.175429100810e+01
3.232660094889e+01
3.187349560513e+01
3.182071252940e+01
3.342330756722e+01
3.606184297159e+01
3.174830839365e+01
3.232427047967e+01
3.189086444246e+01
3.188735190440e+01
3.232498243257e+01
3.174986312269e+01
3.329213299147e+01
3.232993351746e+01
3.328433281097e+01
3.234342897810e+01
3.328719391325e+01
3.235012324297e+01
3.327528576386e+01
3.231180119572e+01
4.976245298602e+01
3.146118512768e+01
3.145923822240e+01
3.144866838968e+01
3.145019866189e+01
4.025439202138e+01
4.023515264000e+01
4.020836275301e+01
4.028560989381e+01
3.195361110483e+01
3.345110097291e+01
3.619357993183e+01
3.624746627831e+01
3.338071099724e+01
3.195430893574e+01
3.185480346040e+01
3.243019957933e+01
3.199234999050e+01
3.195302035347e+01
3.344549040540e+01
3.617889911568e+01
3.185971206175e+01
3.243362264330e+01
3.197838651302e+01
3.192548383865e+01
3.352413920581e+01
3.613834073744e+01
3.185371953871e+01
3.243130518448e+01
3.199576174773e+01
3.199225891889e+01
3.243201276605e+01
3.185518437273e+01
3.339872425934e+01
3.243543690457e+01
3.339089609342e+01
3.244915359373e+01
3.339372001092e+01
3.245551861901e+01
3.338189286100e+01
3.241727576225e+01
4.978156822134e+01
3.131412686584e+01
3.131264830335e+01
3.130141845786e+01
3.130390763507e+01
4.034795307004e+01
4.032942607463e+01
4.030932033531e+01
4.036841622039e+01
3.178661263656e+01
3.328906956253e+01
3.613245706158e+01
3.618907671674e+01
3.321609672569e+01
3.178652720296e+01
3.167904886632e+01
3.223212179316e+01
3.181963252604e+01
3.178642909773e+01
3.328288201385e+01
3.611603730719e+01
3.168411674019e+01
3.223560665966e+01
3.180588198081e+01
3.175905809411e+01
3.336349250145e+01
3.607144457510e+01
3.167835174028e+01
3.223303050046e+01
3.182325627782e+01
3.181974830273e+01
3.223394391742e+01
3.167943775798e+01
3.320825425248e+01
3.225495496273e+01
3.320054199460e+01
3.226664100105e+01
3.320289547766e+01
3.227538723796e+01
3.319100362921e+01
3.223686952775e+01
4.971807717191e+01
3.062746247002e+01
3.062653943550e+01
3.061917144588e+01
3.062161332925e+01
3.755641871143e+01
3.751879136417e+01
3.744210757882e+01
3.764550726041e+01
3.091792292342e+01
3.186444206957e+01
3.381687084887e+01
3.384682409678e+01
3.181415110243e+01
3.091903514660e+01
3.084955045465e+01
3.118486096079e+01
3.093622239524e+01
3.091792160709e+01
3.186007600603e+01
3.380136130740e+01
3.085243733398e+01
3.118724425778e+01
3.092765602841e+01
3.089854567574e+01
3.191535751990e+01
3.378305379294e+01
3.084899891614e+01
3.118541993168e+01
3.093844949997e+01
3.093629342217e+01
3.118600642569e+01
3.084991910911e+01
3.178008937552e+01
3.120492870455e+01
3.177536779784e+01
3.121111685907e+01
3.177654891405e+01
3.121809346049e+01
3.176866045508e+01
3.119389272512e+01
4.835909829780e+01
3.041053416645e+01
3.040970068553e+01
3.040472795845e+01
3.040592609132e+01
3.325869002179e+01
3.327508492167e+01
3.333543315277e+01
3.317984492992e+01
3.062687953773e+01
3.128222815764e+01
3.240130633822e+01
3.243311950905e+01
3.125329175203e+01
3.062628859526e+01
3.058346049715e+01
3.083944298132e+01
3.064531620193e+01
3.062650310801e+01
3.127983020077e+01
3.239772775328e+01
3.058562655988e+01
3.084083345539e+01
3.063918887951e+01
3.061601315234e+01
3.131203773119e+01
3.236631646280e+01
3.058280419007e+01
3.083988025564e+01
3.064678268402e+01
3.064520858567e+01
3.084018935048e+01
3.058344784170e+01
3.127423123095e+01
3.084021363989e+01
3.127102548651e+01
3.084661593218e+01
3.127298625963e+01
3.084880802881e+01
3.126776034867e+01
3.083206247751e+01
3.167668667688e+01
3.020126938172e+01
3.020039807277e+01
3.019835163348e+01
3.019741659445e+01
3.135353667338e+01
3.136703050472e+01
3.139078068633e+01
3.133420696722e+01
3.034856883641e+01
3.073519157609e+01
3.122674349606e+01
3.124097986659e+01
3.072301064989e+01
3.034804036283e+01
3.032866403467e+01
3.050500854053e+01
3.036463058059e+01
3.034813899902e+01
3.073464216539e+01
3.122924413885e+01
3.033021206590e+01
3.050571889149e+01
3.036075959938e+01
3.034293290552e+01
3.074923009276e+01
3.121765734944e+01
3.032846218473e+01
3.050556426915e+01
3.036541851683e+01
3.036445257966e+01
3.050556225778e+01
3.032878907318e+01
3.077251895899e+01
3.049007825039e+01
3.076998203124e+01
3.049607880776e+01
3.077071414099e+01
3.049492794892e+01
3.076836906908e+01
3.048503530404e+01
3.174451871275e+01
3.001755912934e+01
3.001683739391e+01
3.001642115666e+01
3.001474313202e+01
3.061074619200e+01
3.061354683982e+01
3.061799407301e+01
3.060838450188e+01
3.010922974286e+01
3.031070166800e+01
3.052348669897e+01
3.052898065289e+01
3.030537026190e+01
3.010978688367e+01
3.010452170965e+01
3.021221732028e+01
3.012086686577e+01
3.010870460919e+01
3.031076776564e+01
3.052509899564e+01
3.010522842138e+01
3.021253171730e+01
3.011869166177e+01
3.010536815682e+01
3.031789786307e+01
3.052207298724e+01
3.010410011512e+01
3.021253027429e+01
3.012121713630e+01
3.012070607287e+01
3.021244487703e+01
3.010452116780e+01
3.034597952489e+01
3.019292507762e+01
3.034469696520e+01
3.019736062118e+01
3.034556310861e+01
3.019519994693e+01
3.034417275313e+01
3.019016320246e+01
3.056488122143e+01
2.987253663892e+01
2.987196119738e+01
2.987164761316e+01
2.987131858502e+01
3.013727657703e+01
3.013875218113e+01
3.014178994773e+01
3.013460895623e+01
2.992291117109e+01
3.001786466267e+01
3.010944222939e+01
3.011203192997e+01
3.001540173732e+01
2.992359584690e+01
2.992448055178e+01
2.998262183751e+01
2.993101328011e+01
2.992247505922e+01
3.001795867981e+01
3.011008710883e+01
2.992459981371e+01
2.998280626254e+01
2.992989665043e+01
2.992061537263e+01
3.002145358044e+01
3.010861252850e+01
2.992396772285e+01
2.998288780035e+01
2.993099804833e+01
2.993076670334e+01
2.998272505880e+01
2.992447404736e+01
3.003962342386e+01
2.996690118836e+01
3.003908084163e+01
2.996964107811e+01
3.003987242682e+01
2.996791208459e+01
3.003906621697e+01
2.996563436008e+01
3.015052863869e+01
2.967249205870e+01
2.967242745710e+01
2.967233147067e+01
2.967267340837e+01
2.966349735983e+01
2.966340311434e+01
2.966316298413e+01
2.966378407726e+01
2.967216180438e+01
2.966922280509e+01
2.966494868353e+01
2.966485434047e+01
2.966929542524e+01
2.967220732980e+01
2.967290509704e+01
2.967247129270e+01
2.967254557768e+01
2.967213189015e+01
2.966923060361e+01
2.966493453509e+01
2.967282556885e+01
2.967247088865e+01
2.967255877320e+01
2.967217783148e+01