# vtk DataFile Version 3.0
Unstructured Grid from OpenGeoSys
ASCII
DATASET UNSTRUCTURED_GRID
FIELD TimesAndCycles 2
TIME 1 1 double
3.600000000000e+03
CYLCE 1 1 long
1
POINTS 1394 double
0.000000000000e+00 0.000000000000e+00 0.000000000000e+00
5.000000000000e+00 0.000000000000e+00 0.000000000000e+00
5.000000000000e+00 5.000000000000e+00 0.000000000000e+00
0.000000000000e+00 5.000000000000e+00 0.000000000000e+00
2.244234909000e+00 2.244234909000e+00 0.000000000000e+00
2.755765091000e+00 2.244234909000e+00 0.000000000000e+00
2.755765091000e+00 2.755765091000e+00 0.000000000000e+00
2.244234909000e+00 2.755765091000e+00 0.000000000000e+00
7.141316008320e-01 7.141316008320e-01 0.000000000000e+00
1.314642334730e+00 1.314642334730e+00 0.000000000000e+00
1.819609643610e+00 1.819609643610e+00 0.000000000000e+00
1.819609643610e+00 3.180390356390e+00 0.000000000000e+00
1.314642334740e+00 3.685357665260e+00 0.000000000000e+00
7.141316008360e-01 4.285868399160e+00 0.000000000000e+00
0.000000000000e+00 3.750000000000e+00 0.000000000000e+00
0.000000000000e+00 2.500000000000e+00 0.000000000000e+00
0.000000000000e+00 1.250000000000e+00 0.000000000000e+00
4.285868399170e+00 7.141316008320e-01 0.000000000000e+00
3.685357665270e+00 1.314642334730e+00 0.000000000000e+00
3.180390356390e+00 1.819609643610e+00 0.000000000000e+00
1.250000000000e+00 0.000000000000e+00 0.000000000000e+00
2.500000000000e+00 0.000000000000e+00 0.000000000000e+00
3.750000000000e+00 0.000000000000e+00 0.000000000000e+00
4.285868399170e+00 4.285868399170e+00 0.000000000000e+00
3.685357665270e+00 3.685357665270e+00 0.000000000000e+00
3.180390356390e+00 3.180390356390e+00 0.000000000000e+00
5.000000000000e+00 1.250000000000e+00 0.000000000000e+00
5.000000000000e+00 2.500000000000e+00 0.000000000000e+00
5.000000000000e+00 3.750000000000e+00 0.000000000000e+00
3.750000000000e+00 5.000000000000e+00 0.000000000000e+00
2.500000000000e+00 5.000000000000e+00 0.000000000000e+00
1.250000000000e+00 5.000000000000e+00 0.000000000000e+00
9.560744151940e-01 2.677827143250e+00 0.000000000000e+00
6.659597640160e-01 1.438876720610e+00 0.000000000000e+00
2.309219871940e+00 9.522638293400e-01 0.000000000000e+00
3.458157207860e+00 6.354750772000e-01 0.000000000000e+00
4.043925584810e+00 2.322172856750e+00 0.000000000000e+00
4.334040235980e+00 3.561123279390e+00 0.000000000000e+00
2.318530875810e+00 4.048536535600e+00 0.000000000000e+00
3.552396921680e+00 4.370927842320e+00 0.000000000000e+00
2.500000000000e+00 2.500000000000e+00 0.000000000000e+00
0.000000000000e+00 0.000000000000e+00 -5.000000000000e-01
5.000000000000e+00 0.000000000000e+00 -5.000000000000e-01
5.000000000000e+00 5.000000000000e+00 -5.000000000000e-01
0.000000000000e+00 5.000000000000e+00 -5.000000000000e-01
2.244234909000e+00 2.244234909000e+00 -5.000000000000e-01
2.755765091000e+00 2.244234909000e+00 -5.000000000000e-01
2.755765091000e+00 2.755765091000e+00 -5.000000000000e-01
2.244234909000e+00 2.755765091000e+00 -5.000000000000e-01
7.141316008320e-01 7.141316008320e-01 -5.000000000000e-01
1.314642334730e+00 1.314642334730e+00 -5.000000000000e-01
1.819609643610e+00 1.819609643610e+00 -5.000000000000e-01
1.819609643610e+00 3.180390356390e+00 -5.000000000000e-01
1.314642334740e+00 3.685357665260e+00 -5.000000000000e-01
7.141316008360e-01 4.285868399160e+00 -5.000000000000e-01
0.000000000000e+00 3.750000000000e+00 -5.000000000000e-01
0.000000000000e+00 2.500000000000e+00 -5.000000000000e-01
0.000000000000e+00 1.250000000000e+00 -5.000000000000e-01
4.285868399170e+00 7.141316008320e-01 -5.000000000000e-01
3.685357665270e+00 1.314642334730e+00 -5.000000000000e-01
3.180390356390e+00 1.819609643610e+00 -5.000000000000e-01
1.250000000000e+00 0.000000000000e+00 -5.000000000000e-01
2.500000000000e+00 0.000000000000e+00 -5.000000000000e-01
3.750000000000e+00 0.000000000000e+00 -5.000000000000e-01
4.285868399170e+00 4.285868399170e+00 -5.000000000000e-01
3.685357665270e+00 3.685357665270e+00 -5.000000000000e-01
3.180390356390e+00 3.180390356390e+00 -5.000000000000e-01
5.000000000000e+00 1.250000000000e+00 -5.000000000000e-01
5.000000000000e+00 2.500000000000e+00 -5.000000000000e-01
5.000000000000e+00 3.750000000000e+00 -5.000000000000e-01
3.750000000000e+00 5.000000000000e+00 -5.000000000000e-01
2.500000000000e+00 5.000000000000e+00 -5.000000000000e-01
1.250000000000e+00 5.000000000000e+00 -5.000000000000e-01
9.560744151940e-01 2.677827143250e+00 -5.000000000000e-01
6.659597640160e-01 1.438876720610e+00 -5.000000000000e-01
2.309219871940e+00 9.522638293400e-01 -5.000000000000e-01
3.458157207860e+00 6.354750772000e-01 -5.000000000000e-01
4.043925584810e+00 2.322172856750e+00 -5.000000000000e-01
4.334040235980e+00 3.561123279390e+00 -5.000000000000e-01
2.318530875810e+00 4.048536535600e+00 -5.000000000000e-01
3.552396921680e+00 4.370927842320e+00 -5.000000000000e-01
2.500000000000e+00 2.500000000000e+00 -5.000000000000e-01
0.000000000000e+00 0.000000000000e+00 -1.000000000000e+00
5.000000000000e+00 0.000000000000e+00 -1.000000000000e+00
5.000000000000e+00 5.000000000000e+00 -1.000000000000e+00
0.000000000000e+00 5.000000000000e+00 -1.000000000000e+00
2.244234909000e+00 2.244234909000e+00 -1.000000000000e+00
2.755765091000e+00 2.244234909000e+00 -1.000000000000e+00
2.755765091000e+00 2.755765091000e+00 -1.000000000000e+00
2.244234909000e+00 2.755765091000e+00 -1.000000000000e+00
7.141316008320e-01 7.141316008320e-01 -1.000000000000e+00
1.314642334730e+00 1.314642334730e+00 -1.000000000000e+00
1.819609643610e+00 1.819609643610e+00 -1.000000000000e+00
1.819609643610e+00 3.180390356390e+00 -1.000000000000e+00
1.314642334740e+00 3.685357665260e+00 -1.000000000000e+00
7.141316008360e-01 4.285868399160e+00 -1.000000000000e+00
0.000000000000e+00 3.750000000000e+00 -1.000000000000e+00
0.000000000000e+00 2.500000000000e+00 -1.000000000000e+00
0.000000000000e+00 1.250000000000e+00 -1.000000000000e+00
4.285868399170e+00 7.141316008320e-01 -1.000000000000e+00
3.685357665270e+00 1.314642334730e+00 -1.000000000000e+00
3.180390356390e+00 1.819609643610e+00 -1.000000000000e+00
1.250000000000e+00 0.000000000000e+00 -1.000000000000e+00
2.500000000000e+00 0.000000000000e+00 -1.000000000000e+00
3.750000000000e+00 0.000000000000e+00 -1.000000000000e+00
4.285868399170e+00 4.285868399170e+00 -1.000000000000e+00
3.685357665270e+00 3.685357665270e+00 -1.000000000000e+00
3.180390356390e+00 3.180390356390e+00 -1.000000000000e+00
5.000000000000e+00 1.250000000000e+00 -1.000000000000e+00
5.000000000000e+00 2.500000000000e+00 -1.000000000000e+00
5.000000000000e+00 3.750000000000e+00 -1.000000000000e+00
3.750000000000e+00 5.000000000000e+00 -1.000000000000e+00
2.500000000000e+00 5.000000000000e+00 -1.000000000000e+00
1.250000000000e+00 5.000000000000e+00 -1.000000000000e+00
9.560744151940e-01 2.677827143250e+00 -1.000000000000e+00
6.659597640160e-01 1.438876720610e+00 -1.000000000000e+00
2.309219871940e+00 9.522638293400e-01 -1.000000000000e+00
3.458157207860e+00 6.354750772000e-01 -1.000000000000e+00
4.043925584810e+00 2.322172856750e+00 -1.000000000000e+00
4.334040235980e+00 3.561123279390e+00 -1.000000000000e+00
2.318530875810e+00 4.048536535600e+00 -1.000000000000e+00
3.552396921680e+00 4.370927842320e+00 -1.000000000000e+00
2.500000000000e+00 2.500000000000e+00 -1.000000000000e+00
0.000000000000e+00 0.000000000000e+00 -3.000000000000e+00
5.000000000000e+00 0.000000000000e+00 -3.000000000000e+00
5.000000000000e+00 5.000000000000e+00 -3.000000000000e+00
0.000000000000e+00 5.000000000000e+00 -3.000000000000e+00
2.244234909000e+00 2.244234909000e+00 -3.000000000000e+00
2.755765091000e+00 2.244234909000e+00 -3.000000000000e+00
2.755765091000e+00 2.755765091000e+00 -3.000000000000e+00
2.244234909000e+00 2.755765091000e+00 -3.000000000000e+00
7.141316008320e-01 7.141316008320e-01 -3.000000000000e+00
1.314642334730e+00 1.314642334730e+00 -3.000000000000e+00
1.819609643610e+00 1.819609643610e+00 -3.000000000000e+00
1.819609643610e+00 3.180390356390e+00 -3.000000000000e+00
1.314642334740e+00 3.685357665260e+00 -3.000000000000e+00
7.141316008360e-01 4.285868399160e+00 -3.000000000000e+00
0.000000000000e+00 3.750000000000e+00 -3.000000000000e+00
0.000000000000e+00 2.500000000000e+00 -3.000000000000e+00
0.000000000000e+00 1.250000000000e+00 -3.000000000000e+00
4.285868399170e+00 7.141316008320e-01 -3.000000000000e+00
3.685357665270e+00 1.314642334730e+00 -3.000000000000e+00
3.180390356390e+00 1.819609643610e+00 -3.000000000000e+00
1.250000000000e+00 0.000000000000e+00 -3.000000000000e+00
2.500000000000e+00 0.000000000000e+00 -3.000000000000e+00
3.750000000000e+00 0.000000000000e+00 -3.000000000000e+00
4.285868399170e+00 4.285868399170e+00 -3.000000000000e+00
3.685357665270e+00 3.685357665270e+00 -3.000000000000e+00
3.180390356390e+00 3.180390356390e+00 -3.000000000000e+00
5.000000000000e+00 1.250000000000e+00 -3.000000000000e+00
5.000000000000e+00 2.500000000000e+00 -3.000000000000e+00
5.000000000000e+00 3.750000000000e+00 -3.000000000000e+00
3.750000000000e+00 5.000000000000e+00 -3.000000000000e+00
2.500000000000e+00 5.000000000000e+00 -3.000000000000e+00
1.250000000000e+00 5.000000000000e+00 -3.000000000000e+00
9.560744151940e-01 2.677827143250e+00 -3.000000000000e+00
6.659597640160e-01 1.438876720610e+00 -3.000000000000e+00
2.309219871940e+00 9.522638293400e-01 -3.000000000000e+00
3.458157207860e+00 6.354750772000e-01 -3.000000000000e+00
4.043925584810e+00 2.322172856750e+00 -3.000000000000e+00
4.334040235980e+00 3.561123279390e+00 -3.000000000000e+00
2.318530875810e+00 4.048536535600e+00 -3.000000000000e+00
3.552396921680e+00 4.370927842320e+00 -3.000000000000e+00
2.500000000000e+00 2.500000000000e+00 -3.000000000000e+00
0.000000000000e+00 0.000000000000e+00 -5.000000000000e+00
5.000000000000e+00 0.000000000000e+00 -5.000000000000e+00
5.000000000000e+00 5.000000000000e+00 -5.000000000000e+00
0.000000000000e+00 5.000000000000e+00 -5.000000000000e+00
2.244234909000e+00 2.244234909000e+00 -5.000000000000e+00
[...]
POINT_DATA 1394
SCALARS TEMPERATURE1 double 1
LOOKUP_TABLE default
1.000000000000e+01
1.000000000000e+01
1.000000000000e+01
1.000000000000e+01
1.000000000000e+01
1.000000000000e+01
1.000000000000e+01
1.000000000000e+01
1.000000000000e+01
1.000000000000e+01
1.000000000000e+01
1.000000000000e+01
1.000000000000e+01
1.000000000000e+01
1.000000000000e+01
1.000000000000e+01
1.000000000000e+01
1.000000000000e+01
1.000000000000e+01
1.000000000000e+01
1.000000000000e+01
1.000000000000e+01
1.000000000000e+01
1.000000000000e+01
1.000000000000e+01
1.000000000000e+01
1.000000000000e+01
1.000000000000e+01
1.000000000000e+01
1.000000000000e+01
1.000000000000e+01
1.000000000000e+01
1.000000000000e+01
1.000000000000e+01
1.000000000000e+01
1.000000000000e+01
1.000000000000e+01
1.000000000000e+01
1.000000000000e+01
1.000000000000e+01
1.000000000000e+01
1.695252069812e+01
1.695347299601e+01
1.695829285081e+01
1.695181958229e+01
1.611571152750e+01
1.609728932976e+01
1.610161871146e+01
1.607541668695e+01
1.685880640028e+01
1.655266818415e+01
1.615697929077e+01
1.614751264823e+01
1.656198329060e+01
1.686182277479e+01
1.687986878551e+01
1.676050647581e+01
1.684464363993e+01
1.685852111650e+01
1.655357846351e+01
1.615169495054e+01
1.687874763922e+01
1.675947111310e+01
1.684758320140e+01
1.685982833996e+01
1.654379887392e+01
1.615713437767e+01
1.687926566980e+01
1.675898393943e+01
1.684470429061e+01
1.684543263551e+01
1.675946236897e+01
1.687900468054e+01
1.653612583635e+01
1.676051125180e+01
1.653927974926e+01
1.675707529392e+01
1.654105233315e+01
1.675574650486e+01
1.654140685701e+01
1.676379362899e+01
1.318428933914e+01
2.311586922033e+01
2.311668117700e+01
2.310288610576e+01
2.313350834414e+01
3.004156678514e+01
2.995434861807e+01
2.977703089221e+01
3.023223112230e+01
2.294903258147e+01
2.290595729551e+01
2.440628519711e+01
2.441145599999e+01
2.286327018430e+01
2.295102912858e+01
2.292708099803e+01
2.270740713480e+01
2.292710998906e+01
2.295102106020e+01
2.289823275631e+01
2.436656452083e+01
2.292289552694e+01
2.271019133913e+01
2.292918741374e+01
2.294255111536e+01
2.293582916026e+01
2.436216692786e+01
2.292555784275e+01
2.270872919164e+01
2.292449414187e+01
2.292539730268e+01
2.270794745436e+01
2.292815418492e+01
2.252967725274e+01
2.280700310562e+01
2.253239112080e+01
2.278978638732e+01
2.253136102287e+01
2.281029613521e+01
2.252794009955e+01
2.281194920420e+01
4.732508959789e+01
2.578835059651e+01
2.578949407209e+01
2.577015631810e+01
2.581110799817e+01
3.267698045484e+01
3.260731936156e+01
3.247520781004e+01
3.281515699027e+01
2.558704240169e+01
2.564155379230e+01
2.736820654781e+01
2.738532771113e+01
2.559331617881e+01
2.558347153376e+01
2.553259152470e+01
2.528906230918e+01
2.555654298939e+01
2.559029825587e+01
2.563282340077e+01
2.733150288159e+01
2.552893046665e+01
2.529205732948e+01
2.555851570381e+01
2.558560248822e+01
2.567399053705e+01
2.731313193818e+01
2.553244224160e+01
2.529072971636e+01
2.555448726337e+01
2.555471142748e+01
2.529021515506e+01
2.553442826224e+01
2.522159159919e+01
2.543726056621e+01
2.522303936528e+01
2.541591930976e+01
2.521895590788e+01
2.544291007958e+01
2.521645172234e+01
2.544142075023e+01
4.750420738799e+01
2.691083584923e+01
2.691208905670e+01
2.689523095766e+01
2.693277505722e+01
3.294694018921e+01
3.287659702039e+01
3.274092910321e+01
3.308874401408e+01
2.668087492331e+01
2.659297116476e+01
2.801388736659e+01
2.802384039050e+01
2.655259741089e+01
2.667844391814e+01
2.664185263377e+01
2.636166803082e+01
2.664923545785e+01
2.668386027024e+01
2.658512302547e+01
2.797845588434e+01
2.663783127193e+01
2.636427799299e+01
2.665234184773e+01
2.668064311927e+01
2.661829543301e+01
2.796652403156e+01
2.664156489450e+01
2.636309465136e+01
2.664686573519e+01
2.664748937684e+01
2.636248668159e+01
2.664343507542e+01
2.619524775569e+01
2.649680654717e+01
2.619761232711e+01
2.647563657177e+01
2.619403061239e+01
2.650018789582e+01
2.619229710564e+01
2.650245411590e+01
4.714086919140e+01
2.721467860868e+01
2.721596917667e+01
2.719954691877e+01
2.723660555681e+01
3.297981953054e+01
3.291069883860e+01
3.277927425139e+01
3.311541394745e+01
2.697598544599e+01
2.685387453189e+01
2.819803228624e+01
2.820693540013e+01
2.681545712616e+01
2.697362260242e+01
2.693987651126e+01
2.664941921555e+01
2.694379552277e+01
2.697893288290e+01
2.684623970288e+01
2.816316005777e+01
2.693576914863e+01
2.665191995722e+01
2.694720187217e+01
2.697631323157e+01
2.687734928183e+01
2.815178759580e+01
2.693958059437e+01
2.665078234362e+01
2.694137494373e+01
2.694207099937e+01
2.665016641794e+01
2.694140873940e+01
2.646127833212e+01
2.678274348053e+01
2.646385907383e+01
2.676148921208e+01
2.646034483234e+01
2.678558649220e+01
2.645883752387e+01
2.678873772929e+01
4.660994027387e+01
2.725492610763e+01
2.725622361996e+01
2.724038981337e+01
2.727645391699e+01
3.281073691193e+01
3.274262338855e+01
3.261418127774e+01
3.294208799885e+01
2.701473042847e+01
2.687237650544e+01
2.815461695980e+01
2.816257958740e+01
2.683557731681e+01
2.701258677945e+01
2.698137588377e+01
2.668879059141e+01
2.698268118892e+01
2.701759087905e+01
2.686497110184e+01
2.812028527981e+01
2.697725328161e+01
2.669119145592e+01
2.698622289796e+01
2.701521317015e+01
2.689454361757e+01
2.810961094609e+01
2.698103921206e+01
2.669007812608e+01
2.698025644207e+01
2.698100054422e+01
2.668946713854e+01
2.698283629423e+01
2.648774792269e+01
2.681858276117e+01
2.649046791610e+01
2.679759790717e+01
2.648712572399e+01
2.682103022863e+01
2.648572165107e+01
2.682472033379e+01
4.601294969359e+01
2.725556065137e+01
2.725685105057e+01
2.724115928975e+01
2.727698711019e+01
3.275748575059e+01
3.268944719138e+01
3.256112498903e+01
3.288870813741e+01
2.701533066507e+01
2.686859445143e+01
2.813378157265e+01
2.814141781029e+01
2.683225038292e+01
2.701322302841e+01
2.698263382524e+01
2.669001665851e+01
2.698339098793e+01
2.701817138838e+01
2.686125528432e+01
2.809968769365e+01
2.697851462252e+01
2.669239133730e+01
2.698695765496e+01
2.701587768770e+01
2.689039881416e+01
2.808938144016e+01
2.698229674006e+01
2.669129426193e+01
2.698096766761e+01
2.698171983786e+01
2.669068273610e+01
2.698408480982e+01
2.648654261581e+01
2.681881711327e+01
2.648927352269e+01
2.679792838864e+01
2.648594527904e+01
2.682117655064e+01
2.648458674468e+01
2.682498122722e+01
4.590958303118e+01
2.728703738063e+01
2.728831927321e+01
2.727474158161e+01
2.730700306358e+01
3.203117720738e+01
3.196682814135e+01
3.184947274058e+01
3.214683642421e+01
2.704312205500e+01
2.682536528854e+01
2.786672556616e+01
2.787101296753e+01
2.679485869473e+01
2.704184717894e+01
2.702071865153e+01
2.672239906256e+01
2.701210633143e+01
2.704562387264e+01
2.681886541344e+01
2.783464923463e+01
2.701653111062e+01
2.672441724339e+01
2.701612811343e+01
2.704416300765e+01
2.684250409067e+01
2.782685889918e+01
2.702020013443e+01
2.672342160376e+01
2.700965548202e+01
2.701057714065e+01
2.672281549840e+01
2.702191190570e+01
2.647329190510e+01
2.683751463400e+01
2.647650989210e+01
2.681772057214e+01
2.647384242657e+01
2.683846218781e+01
2.647283819368e+01
2.684417018810e+01
4.362896298225e+01
2.732171113601e+01
2.732298457007e+01
2.731098343770e+01
2.734053900061e+01
3.149657139095e+01
3.143502253920e+01
3.132571617250e+01
3.160102851908e+01
2.707606692217e+01
2.680878922998e+01
2.768341500567e+01
2.768522152899e+01
2.678266194044e+01
2.707535026659e+01
2.706089062839e+01
2.675978908894e+01
2.704575238373e+01
2.707832586553e+01
2.680292875568e+01
2.765303469265e+01
2.705668915268e+01
2.676153555106e+01
2.705008225075e+01
2.707751525505e+01
2.682245381533e+01
2.764722199705e+01
2.706026792854e+01
2.676062187243e+01
2.704330798167e+01
2.704434008758e+01
2.676002967700e+01
2.706190119167e+01
2.648009732422e+01
2.686487519583e+01
2.648362887534e+01
2.684594194589e+01
2.648140235776e+01
2.686481598219e+01
2.648068263564e+01
2.687184315797e+01
4.196486280297e+01
2.735642029029e+01
2.735768473978e+01
2.734693148522e+01
2.737431621696e+01
3.107570934759e+01
3.101660496936e+01
3.091386779286e+01
3.117130989536e+01
2.711013474137e+01
2.680575385369e+01
2.754866970672e+01
2.754855559725e+01
2.678310423828e+01
2.710982917721e+01
2.710046937781e+01
2.679815011711e+01
2.708042195890e+01
2.711220406999e+01
2.680040680701e+01
2.751973065371e+01
2.709627642003e+01
2.679968010524e+01
2.708497500396e+01
2.711191829499e+01
2.681667608694e+01
2.751547243320e+01
2.709977728383e+01
2.679883423995e+01
2.707799416685e+01
2.707910585075e+01
2.679825661501e+01
2.710133891616e+01
2.649620421670e+01
2.689530673010e+01
2.649995780473e+01
2.687709012456e+01
2.649806191522e+01
2.689447804434e+01
2.649757372273e+01
2.690249040015e+01
4.064008031359e+01
2.738942193792e+01
2.739067709892e+01
2.738087272774e+01
2.740658514678e+01
3.075847532913e+01
3.070137685705e+01
3.060372793362e+01
3.084742255757e+01
2.714322540926e+01
2.681225425066e+01
2.745506842178e+01
2.745351821200e+01
2.679226194056e+01
2.714320821469e+01
2.713759286009e+01
2.683512990580e+01
2.711401227627e+01
2.714515267044e+01
2.680730368572e+01
2.742730882008e+01
2.713342166996e+01
2.683649411660e+01
2.711871873718e+01
2.714527536666e+01
2.682109361114e+01
2.742424188574e+01
2.713685860182e+01
2.683570290919e+01
2.711160595108e+01
2.711277201174e+01
2.683513888722e+01
2.713835852983e+01
2.651778899352e+01
2.692625144820e+01
2.652168978929e+01
2.690860896283e+01
2.652002913900e+01
2.692485896397e+01
2.651972341629e+01
2.693357469713e+01
3.963618727874e+01
2.741915046938e+01
2.742039605962e+01
2.741126203383e+01
2.743577426703e+01
3.053608948780e+01
3.048056977151e+01
3.038661330644e+01
3.062042706825e+01
2.717356328984e+01
2.682525169015e+01
2.739713165548e+01
2.739458613421e+01
2.680715565012e+01
2.717372760856e+01
2.717065335795e+01
2.686882701014e+01
2.714475419221e+01
2.717539163912e+01
2.682058755027e+01
2.737028738167e+01
2.716651120553e+01
2.687007329153e+01
2.714955398927e+01
2.717581348875e+01
2.683261525716e+01
2.736807249109e+01
2.716989869445e+01
2.686932430158e+01
2.714236995974e+01
2.714356915821e+01
2.686877139638e+01
2.717134892101e+01
2.654197793993e+01
2.695564960475e+01
2.654596241950e+01
2.693844262127e+01
2.654445342162e+01
2.695387771104e+01
2.654428348687e+01
2.696304975838e+01
3.892737068489e+01
2.744460989686e+01
2.744584573855e+01
2.743712039901e+01
2.746088214356e+01
3.040202676158e+01
3.034765397351e+01
3.025604502593e+01
3.048368391191e+01
2.719998754728e+01
2.684259635735e+01
2.737077034322e+01
2.736763362668e+01
2.682568280615e+01
2.720023901411e+01
2.719861900868e+01
2.689798014431e+01
2.717148957435e+01
2.720175679191e+01
2.683811413475e+01
2.734457653978e+01
2.719450873941e+01
2.689915386451e+01
2.717633022452e+01
2.720237402971e+01
2.684904983236e+01
2.734289806296e+01
2.719786167285e+01
2.689843519904e+01
2.716912517520e+01
2.717033927773e+01
2.689788998258e+01
2.719927558014e+01
2.656675627235e+01
2.698211848448e+01
2.657076960378e+01
2.696521139718e+01
2.656933745615e+01
2.698013480604e+01
2.656925871072e+01
2.698954320440e+01
3.849667800243e+01
2.746535792062e+01
2.746658373290e+01
2.745801545981e+01
2.748146293843e+01
3.035216021420e+01
3.029851473445e+01
3.020795214396e+01
3.043299413722e+01
2.722196986736e+01
2.686318714823e+01
2.737368000503e+01
2.737033505318e+01
2.684677210464e+01
2.722222114176e+01
2.722103921595e+01
2.692201806410e+01
2.719369447149e+01
2.722371770563e+01
2.685878599593e+01
2.734787305171e+01
2.721696116531e+01
2.692316311538e+01
2.719852776501e+01
2.722443037527e+01
2.686927046715e+01
2.734642771135e+01
2.722029454244e+01
2.692246333439e+01
2.719134583922e+01
2.719255834744e+01
2.692192172536e+01
2.722168635737e+01
2.659112102023e+01
2.700500881202e+01
2.659511326090e+01
2.698826884036e+01
2.659368846515e+01
2.700297118066e+01
2.659365770943e+01
2.701241166862e+01
3.833171683825e+01
2.748158517719e+01
2.748280041723e+01
2.747412356044e+01
2.749771472347e+01
3.039047362180e+01
3.033709333186e+01
3.024610526643e+01
3.047261111668e+01
2.723976451828e+01
2.688792386668e+01
2.740783082218e+01
2.740466648662e+01
2.687129911796e+01
2.723991424551e+01
2.723806368329e+01
2.694120902508e+01
2.721161677570e+01
2.724153266485e+01
2.688349942722e+01
2.738216240532e+01
2.723402238398e+01
2.694237100590e+01
2.721638988369e+01
2.724224407175e+01
2.689419540519e+01
2.738066692498e+01
2.723735297970e+01
2.694167978659e+01
2.720928200402e+01
2.721047413981e+01
2.694113812860e+01
2.723873453535e+01
2.661590106836e+01
2.702469859870e+01
2.661981297458e+01
2.700798891450e+01
2.661831244795e+01
2.702277716242e+01
2.661828987996e+01
2.703202688359e+01
3.845783043228e+01
2.748215105350e+01
2.748336298255e+01
2.747463779187e+01
2.749830839162e+01
3.040346957213e+01
3.035012014284e+01
3.025900125573e+01
3.048591714045e+01
2.724062929439e+01
2.689063577331e+01
2.741479958094e+01
2.741171363651e+01
2.687390233276e+01
2.724075641646e+01
2.723872639525e+01
2.694227533152e+01
2.721251420931e+01
2.724240314285e+01
2.688619701108e+01
2.738911800905e+01
2.723468836105e+01
2.694344566153e+01
2.721727307315e+01
2.724310144086e+01
2.689699683178e+01
2.738756286930e+01
2.723801967092e+01
2.694275481496e+01
2.721017847678e+01
2.721136593150e+01
2.694221099888e+01
2.723940380537e+01
2.661823000256e+01
2.702595769783e+01
2.662212618850e+01
2.700924200387e+01
2.662061097236e+01
2.702406998380e+01
2.662058277772e+01
2.703327063030e+01
3.849741848978e+01
2.748418680467e+01
2.748540325010e+01
2.747663604690e+01
2.750034645656e+01
3.043121014187e+01
3.037779368730e+01
3.028650774216e+01
3.051390228486e+01
2.724324912808e+01
2.689646805810e+01
2.742866819727e+01
2.742572686513e+01
2.687953006445e+01
2.724336022826e+01
2.724097153174e+01
2.694521882531e+01
2.721511362917e+01
2.724503154351e+01
2.689200268724e+01
2.740292229322e+01
2.723694555022e+01
2.694639974810e+01
2.721984720409e+01
2.724567813812e+01
2.690300882617e+01
2.740124201708e+01
2.724027170152e+01
2.694570085015e+01
2.721278602647e+01
2.721396764234e+01
2.694516085125e+01
2.724165240428e+01
2.662329875151e+01
2.702927421865e+01
2.662717674099e+01
2.701254337240e+01
2.662565122559e+01
2.702743858898e+01
2.662560140357e+01
2.703655466777e+01
3.856260541108e+01
2.754608540139e+01
2.754729963779e+01
2.753850739883e+01
2.756240922933e+01
3.045857046963e+01
3.040525929028e+01
3.031305127856e+01
3.054310898886e+01
2.730224101672e+01
2.695027609611e+01
2.747190524638e+01
2.746865515380e+01
2.693365588124e+01
2.730224994564e+01
2.729979798819e+01
2.700102210316e+01
2.727376507825e+01
2.730404945010e+01
2.694582704533e+01
2.744635795477e+01
2.729575062792e+01
2.700217850395e+01
2.727855052575e+01
2.730493158507e+01
2.695647260324e+01
2.744507593457e+01
2.729912633181e+01
2.700151150331e+01
2.727144055223e+01
2.727262512880e+01
2.700098160226e+01
2.730050646042e+01
2.667696043310e+01
2.708593968208e+01
2.668081318320e+01
2.706907443625e+01
2.667917362768e+01
2.708407365614e+01
2.667923805717e+01
2.709330427245e+01
3.865247618232e+01
2.787007070502e+01
2.787101979072e+01
2.786167633769e+01
2.788699268505e+01
3.085973698472e+01
3.080653267941e+01
3.071748878469e+01
3.093879114186e+01
2.763190251353e+01
2.728377544791e+01
2.783031990903e+01
2.782810089004e+01
2.726621171706e+01
2.763232689184e+01
2.763286362479e+01
2.733946800557e+01
2.760620412546e+01
2.763353208822e+01
2.727920997644e+01
2.780403008300e+01
2.762847265949e+01
2.734071996912e+01
2.761088412116e+01
2.763402548618e+01
2.729089604529e+01
2.780132923846e+01
2.763177246237e+01
2.734013170309e+01
2.760363039863e+01
2.760483209862e+01
2.733945483046e+01
2.763359001490e+01
2.700894213080e+01
2.741914968405e+01
2.701289093268e+01
2.740268489023e+01
2.701169925234e+01
2.741734448788e+01
2.701151108736e+01
2.742660319461e+01
3.888500470175e+01
2.861885546051e+01
2.861945123985e+01
2.861483992152e+01
2.862843031005e+01
3.079612967408e+01
3.074911212451e+01
3.065657074187e+01
3.089071002517e+01
2.847081463008e+01
2.822740181835e+01
2.853156956530e+01
2.852417905118e+01
2.821749353173e+01
2.847212505280e+01
2.847606759241e+01
2.829065799548e+01
2.845440630292e+01
2.847172615176e+01
2.822486073315e+01
2.851404615013e+01
2.847331413976e+01
2.829135984184e+01
2.845749004992e+01
2.847117478860e+01
2.823150975860e+01
2.852112394227e+01
2.847538147608e+01
2.829094965417e+01
2.845282521538e+01
2.845366880630e+01
2.829053806878e+01
2.847647213977e+01
2.805972349764e+01
2.833470155423e+01
2.806232460065e+01
2.832476887854e+01
2.806158311772e+01
2.833308912833e+01
2.806150486705e+01
2.833959592934e+01
3.812079962067e+01
2.884229644829e+01
2.884289551965e+01
2.883986993290e+01
2.884903490594e+01
2.885162446103e+01
2.884925326562e+01
2.886549047607e+01
2.881779919550e+01
2.872738416019e+01
2.852442330134e+01
2.853980103602e+01
2.854177423109e+01
2.852265195199e+01
2.872673605905e+01
2.873072492943e+01
2.859333157253e+01
2.871560127242e+01
2.872802960328e+01
2.852302746945e+01
2.853273357187e+01
2.872901170713e+01
2.859353928141e+01
2.871806089744e+01
2.873067974335e+01
2.852189478540e+01
2.852463821345e+01
2.873042931438e+01
2.859341370780e+01
2.871455659190e+01
2.871514393084e+01
2.859318739703e+01
2.873083820134e+01
2.843323019848e+01
2.862455036075e+01
2.843522183336e+01
2.861777088361e+01
2.843497023507e+01
2.862276461477e+01
2.843549376681e+01
2.862802873638e+01
2.770357121834e+01
2.906157586359e+01
2.906208049480e+01
2.906099284592e+01
2.906525777177e+01
2.861803205650e+01
2.861934887828e+01
2.862001806254e+01
2.861813570856e+01
2.898148396186e+01
2.882840476405e+01
2.870103467148e+01
2.869838146968e+01
2.883145027655e+01
2.898024874559e+01
2.898277426033e+01
2.889044916851e+01
2.897256105467e+01
2.898207160982e+01
2.882805860079e+01
2.869988891352e+01
2.898209482264e+01
2.889039627550e+01
2.897432858735e+01
2.898530995610e+01
2.882304709721e+01
2.870009512716e+01
2.898320555629e+01
2.889049899278e+01
2.897206091922e+01
2.897243617560e+01
2.889041211833e+01
2.898295564137e+01
2.878974600952e+01
2.891100869305e+01
2.879061225664e+01
2.890686263773e+01
2.878949997916e+01
2.890954809805e+01
2.879075040470e+01
2.891333307274e+01
2.883823956573e+01
2.926555316461e+01
2.926602175603e+01
2.926610579580e+01
2.926699743623e+01
2.899231564152e+01
2.899010205031e+01
2.898526298943e+01
2.899713014476e+01
2.921597243515e+01
2.911762146810e+01
2.901679668262e+01
2.901385058131e+01
2.912021851142e+01
2.921531823842e+01
2.921586300329e+01
2.915862476314e+01
2.920886448168e+01
2.921636511810e+01
2.911757832181e+01
2.901625677850e+01
2.921566085641e+01
2.915848006018e+01
2.921000542965e+01
2.921824522580e+01
2.911391592188e+01
2.901827642485e+01
2.921630952380e+01
2.915845345013e+01
2.920877307361e+01
2.920899205498e+01
2.915852643653e+01
2.921590068887e+01
2.909756368360e+01
2.917219301901e+01
2.909812813659e+01
2.916963880455e+01
2.909736194524e+01
2.917112554468e+01
2.909816905296e+01
2.917351216787e+01
2.893988027091e+01
2.944514751741e+01
2.944551270460e+01
2.944572369564e+01
2.944568154764e+01
2.929922025943e+01
2.929847945773e+01
2.929720408903e+01
2.930003403012e+01
2.941716425600e+01
2.936523110540e+01
2.931567282916e+01
2.931427226623e+01
2.936655819923e+01
2.941674554808e+01
2.941591785566e+01
2.938362400328e+01
2.941239803984e+01
2.941742756568e+01
2.936518500723e+01
2.931529535376e+01
2.941592011054e+01
2.938353753300e+01
2.941303150247e+01
2.941839915871e+01
2.936324101358e+01
2.931600364240e+01
2.941626646601e+01
2.938345723194e+01
2.941242028886e+01
2.941254178613e+01
2.938354413382e+01
2.941590341518e+01
2.935299261265e+01
2.939280783181e+01
2.935332090659e+01
2.939127263216e+01
2.935287280019e+01
2.939223497952e+01
2.935328642434e+01
2.939346510121e+01
2.929910150490e+01
2.987974286280e+01
2.987978576918e+01
2.987981339060e+01
2.987964545407e+01
2.988318764287e+01
2.988321714305e+01
2.988322758032e+01
2.988321049884e+01
2.987959098493e+01
2.988054380639e+01
2.988221308514e+01
2.988223179181e+01
2.988050928911e+01
2.987954325922e+01
2.987918830415e+01
2.987905493671e+01
2.987935783765e+01
2.987961553390e+01
2.988054126863e+01
2.988222546126e+01
2.987924390294e+01
2.987906626814e+01
2.987936488273e+01
2.987959239108e+01