# vtk DataFile Version 3.0
Unstructured Grid from OpenGeoSys
ASCII
DATASET UNSTRUCTURED_GRID
FIELD TimesAndCycles 2
TIME 1 1 double
3.600000000000e+03
CYLCE 1 1 long
1
POINTS 1394 double
0.000000000000e+00 0.000000000000e+00 0.000000000000e+00
5.000000000000e+00 0.000000000000e+00 0.000000000000e+00
5.000000000000e+00 5.000000000000e+00 0.000000000000e+00
0.000000000000e+00 5.000000000000e+00 0.000000000000e+00
2.244234909000e+00 2.244234909000e+00 0.000000000000e+00
2.755765091000e+00 2.244234909000e+00 0.000000000000e+00
2.755765091000e+00 2.755765091000e+00 0.000000000000e+00
2.244234909000e+00 2.755765091000e+00 0.000000000000e+00
7.141316008320e-01 7.141316008320e-01 0.000000000000e+00
1.314642334730e+00 1.314642334730e+00 0.000000000000e+00
1.819609643610e+00 1.819609643610e+00 0.000000000000e+00
1.819609643610e+00 3.180390356390e+00 0.000000000000e+00
1.314642334740e+00 3.685357665260e+00 0.000000000000e+00
7.141316008360e-01 4.285868399160e+00 0.000000000000e+00
0.000000000000e+00 3.750000000000e+00 0.000000000000e+00
0.000000000000e+00 2.500000000000e+00 0.000000000000e+00
0.000000000000e+00 1.250000000000e+00 0.000000000000e+00
4.285868399170e+00 7.141316008320e-01 0.000000000000e+00
3.685357665270e+00 1.314642334730e+00 0.000000000000e+00
3.180390356390e+00 1.819609643610e+00 0.000000000000e+00
1.250000000000e+00 0.000000000000e+00 0.000000000000e+00
2.500000000000e+00 0.000000000000e+00 0.000000000000e+00
3.750000000000e+00 0.000000000000e+00 0.000000000000e+00
4.285868399170e+00 4.285868399170e+00 0.000000000000e+00
3.685357665270e+00 3.685357665270e+00 0.000000000000e+00
3.180390356390e+00 3.180390356390e+00 0.000000000000e+00
5.000000000000e+00 1.250000000000e+00 0.000000000000e+00
5.000000000000e+00 2.500000000000e+00 0.000000000000e+00
5.000000000000e+00 3.750000000000e+00 0.000000000000e+00
3.750000000000e+00 5.000000000000e+00 0.000000000000e+00
2.500000000000e+00 5.000000000000e+00 0.000000000000e+00
1.250000000000e+00 5.000000000000e+00 0.000000000000e+00
9.560744151940e-01 2.677827143250e+00 0.000000000000e+00
6.659597640160e-01 1.438876720610e+00 0.000000000000e+00
2.309219871940e+00 9.522638293400e-01 0.000000000000e+00
3.458157207860e+00 6.354750772000e-01 0.000000000000e+00
4.043925584810e+00 2.322172856750e+00 0.000000000000e+00
4.334040235980e+00 3.561123279390e+00 0.000000000000e+00
2.318530875810e+00 4.048536535600e+00 0.000000000000e+00
3.552396921680e+00 4.370927842320e+00 0.000000000000e+00
2.500000000000e+00 2.500000000000e+00 0.000000000000e+00
0.000000000000e+00 0.000000000000e+00 -5.000000000000e-01
5.000000000000e+00 0.000000000000e+00 -5.000000000000e-01
5.000000000000e+00 5.000000000000e+00 -5.000000000000e-01
0.000000000000e+00 5.000000000000e+00 -5.000000000000e-01
2.244234909000e+00 2.244234909000e+00 -5.000000000000e-01
2.755765091000e+00 2.244234909000e+00 -5.000000000000e-01
2.755765091000e+00 2.755765091000e+00 -5.000000000000e-01
2.244234909000e+00 2.755765091000e+00 -5.000000000000e-01
7.141316008320e-01 7.141316008320e-01 -5.000000000000e-01
1.314642334730e+00 1.314642334730e+00 -5.000000000000e-01
1.819609643610e+00 1.819609643610e+00 -5.000000000000e-01
1.819609643610e+00 3.180390356390e+00 -5.000000000000e-01
1.314642334740e+00 3.685357665260e+00 -5.000000000000e-01
7.141316008360e-01 4.285868399160e+00 -5.000000000000e-01
0.000000000000e+00 3.750000000000e+00 -5.000000000000e-01
0.000000000000e+00 2.500000000000e+00 -5.000000000000e-01
0.000000000000e+00 1.250000000000e+00 -5.000000000000e-01
4.285868399170e+00 7.141316008320e-01 -5.000000000000e-01
3.685357665270e+00 1.314642334730e+00 -5.000000000000e-01
3.180390356390e+00 1.819609643610e+00 -5.000000000000e-01
1.250000000000e+00 0.000000000000e+00 -5.000000000000e-01
2.500000000000e+00 0.000000000000e+00 -5.000000000000e-01
3.750000000000e+00 0.000000000000e+00 -5.000000000000e-01
4.285868399170e+00 4.285868399170e+00 -5.000000000000e-01
3.685357665270e+00 3.685357665270e+00 -5.000000000000e-01
3.180390356390e+00 3.180390356390e+00 -5.000000000000e-01
5.000000000000e+00 1.250000000000e+00 -5.000000000000e-01
5.000000000000e+00 2.500000000000e+00 -5.000000000000e-01
5.000000000000e+00 3.750000000000e+00 -5.000000000000e-01
3.750000000000e+00 5.000000000000e+00 -5.000000000000e-01
2.500000000000e+00 5.000000000000e+00 -5.000000000000e-01
1.250000000000e+00 5.000000000000e+00 -5.000000000000e-01
9.560744151940e-01 2.677827143250e+00 -5.000000000000e-01
6.659597640160e-01 1.438876720610e+00 -5.000000000000e-01
2.309219871940e+00 9.522638293400e-01 -5.000000000000e-01
3.458157207860e+00 6.354750772000e-01 -5.000000000000e-01
4.043925584810e+00 2.322172856750e+00 -5.000000000000e-01
4.334040235980e+00 3.561123279390e+00 -5.000000000000e-01
2.318530875810e+00 4.048536535600e+00 -5.000000000000e-01
3.552396921680e+00 4.370927842320e+00 -5.000000000000e-01
2.500000000000e+00 2.500000000000e+00 -5.000000000000e-01
0.000000000000e+00 0.000000000000e+00 -1.000000000000e+00
5.000000000000e+00 0.000000000000e+00 -1.000000000000e+00
5.000000000000e+00 5.000000000000e+00 -1.000000000000e+00
0.000000000000e+00 5.000000000000e+00 -1.000000000000e+00
2.244234909000e+00 2.244234909000e+00 -1.000000000000e+00
2.755765091000e+00 2.244234909000e+00 -1.000000000000e+00
2.755765091000e+00 2.755765091000e+00 -1.000000000000e+00
2.244234909000e+00 2.755765091000e+00 -1.000000000000e+00
7.141316008320e-01 7.141316008320e-01 -1.000000000000e+00
1.314642334730e+00 1.314642334730e+00 -1.000000000000e+00
1.819609643610e+00 1.819609643610e+00 -1.000000000000e+00
1.819609643610e+00 3.180390356390e+00 -1.000000000000e+00
1.314642334740e+00 3.685357665260e+00 -1.000000000000e+00
7.141316008360e-01 4.285868399160e+00 -1.000000000000e+00
0.000000000000e+00 3.750000000000e+00 -1.000000000000e+00
0.000000000000e+00 2.500000000000e+00 -1.000000000000e+00
0.000000000000e+00 1.250000000000e+00 -1.000000000000e+00
4.285868399170e+00 7.141316008320e-01 -1.000000000000e+00
3.685357665270e+00 1.314642334730e+00 -1.000000000000e+00
3.180390356390e+00 1.819609643610e+00 -1.000000000000e+00
1.250000000000e+00 0.000000000000e+00 -1.000000000000e+00
2.500000000000e+00 0.000000000000e+00 -1.000000000000e+00
3.750000000000e+00 0.000000000000e+00 -1.000000000000e+00
4.285868399170e+00 4.285868399170e+00 -1.000000000000e+00
3.685357665270e+00 3.685357665270e+00 -1.000000000000e+00
3.180390356390e+00 3.180390356390e+00 -1.000000000000e+00
5.000000000000e+00 1.250000000000e+00 -1.000000000000e+00
5.000000000000e+00 2.500000000000e+00 -1.000000000000e+00
5.000000000000e+00 3.750000000000e+00 -1.000000000000e+00
3.750000000000e+00 5.000000000000e+00 -1.000000000000e+00
2.500000000000e+00 5.000000000000e+00 -1.000000000000e+00
1.250000000000e+00 5.000000000000e+00 -1.000000000000e+00
9.560744151940e-01 2.677827143250e+00 -1.000000000000e+00
6.659597640160e-01 1.438876720610e+00 -1.000000000000e+00
2.309219871940e+00 9.522638293400e-01 -1.000000000000e+00
3.458157207860e+00 6.354750772000e-01 -1.000000000000e+00
4.043925584810e+00 2.322172856750e+00 -1.000000000000e+00
4.334040235980e+00 3.561123279390e+00 -1.000000000000e+00
2.318530875810e+00 4.048536535600e+00 -1.000000000000e+00
3.552396921680e+00 4.370927842320e+00 -1.000000000000e+00
2.500000000000e+00 2.500000000000e+00 -1.000000000000e+00
0.000000000000e+00 0.000000000000e+00 -3.000000000000e+00
5.000000000000e+00 0.000000000000e+00 -3.000000000000e+00
5.000000000000e+00 5.000000000000e+00 -3.000000000000e+00
0.000000000000e+00 5.000000000000e+00 -3.000000000000e+00
2.244234909000e+00 2.244234909000e+00 -3.000000000000e+00
2.755765091000e+00 2.244234909000e+00 -3.000000000000e+00
2.755765091000e+00 2.755765091000e+00 -3.000000000000e+00
2.244234909000e+00 2.755765091000e+00 -3.000000000000e+00
7.141316008320e-01 7.141316008320e-01 -3.000000000000e+00
1.314642334730e+00 1.314642334730e+00 -3.000000000000e+00
1.819609643610e+00 1.819609643610e+00 -3.000000000000e+00
1.819609643610e+00 3.180390356390e+00 -3.000000000000e+00
1.314642334740e+00 3.685357665260e+00 -3.000000000000e+00
7.141316008360e-01 4.285868399160e+00 -3.000000000000e+00
0.000000000000e+00 3.750000000000e+00 -3.000000000000e+00
0.000000000000e+00 2.500000000000e+00 -3.000000000000e+00
0.000000000000e+00 1.250000000000e+00 -3.000000000000e+00
4.285868399170e+00 7.141316008320e-01 -3.000000000000e+00
3.685357665270e+00 1.314642334730e+00 -3.000000000000e+00
3.180390356390e+00 1.819609643610e+00 -3.000000000000e+00
1.250000000000e+00 0.000000000000e+00 -3.000000000000e+00
2.500000000000e+00 0.000000000000e+00 -3.000000000000e+00
3.750000000000e+00 0.000000000000e+00 -3.000000000000e+00
4.285868399170e+00 4.285868399170e+00 -3.000000000000e+00
3.685357665270e+00 3.685357665270e+00 -3.000000000000e+00
3.180390356390e+00 3.180390356390e+00 -3.000000000000e+00
5.000000000000e+00 1.250000000000e+00 -3.000000000000e+00
5.000000000000e+00 2.500000000000e+00 -3.000000000000e+00
5.000000000000e+00 3.750000000000e+00 -3.000000000000e+00
3.750000000000e+00 5.000000000000e+00 -3.000000000000e+00
2.500000000000e+00 5.000000000000e+00 -3.000000000000e+00
1.250000000000e+00 5.000000000000e+00 -3.000000000000e+00
9.560744151940e-01 2.677827143250e+00 -3.000000000000e+00
6.659597640160e-01 1.438876720610e+00 -3.000000000000e+00
2.309219871940e+00 9.522638293400e-01 -3.000000000000e+00
3.458157207860e+00 6.354750772000e-01 -3.000000000000e+00
4.043925584810e+00 2.322172856750e+00 -3.000000000000e+00
4.334040235980e+00 3.561123279390e+00 -3.000000000000e+00
2.318530875810e+00 4.048536535600e+00 -3.000000000000e+00
3.552396921680e+00 4.370927842320e+00 -3.000000000000e+00
2.500000000000e+00 2.500000000000e+00 -3.000000000000e+00
0.000000000000e+00 0.000000000000e+00 -5.000000000000e+00
5.000000000000e+00 0.000000000000e+00 -5.000000000000e+00
5.000000000000e+00 5.000000000000e+00 -5.000000000000e+00
0.000000000000e+00 5.000000000000e+00 -5.000000000000e+00
2.244234909000e+00 2.244234909000e+00 -5.000000000000e+00
[...]
POINT_DATA 1394
SCALARS TEMPERATURE1 double 1
LOOKUP_TABLE default
1.000000000000e+01
1.000000000000e+01
1.000000000000e+01
1.000000000000e+01
1.000000000000e+01
1.000000000000e+01
1.000000000000e+01
1.000000000000e+01
1.000000000000e+01
1.000000000000e+01
1.000000000000e+01
1.000000000000e+01
1.000000000000e+01
1.000000000000e+01
1.000000000000e+01
1.000000000000e+01
1.000000000000e+01
1.000000000000e+01
1.000000000000e+01
1.000000000000e+01
1.000000000000e+01
1.000000000000e+01
1.000000000000e+01
1.000000000000e+01
1.000000000000e+01
1.000000000000e+01
1.000000000000e+01
1.000000000000e+01
1.000000000000e+01
1.000000000000e+01
1.000000000000e+01
1.000000000000e+01
1.000000000000e+01
1.000000000000e+01
1.000000000000e+01
1.000000000000e+01
1.000000000000e+01
1.000000000000e+01
1.000000000000e+01
1.000000000000e+01
1.000000000000e+01
1.730449360409e+01
1.730482637869e+01
1.730751453367e+01
1.730793204528e+01
1.619780499734e+01
1.617434112503e+01
1.608820589489e+01
1.631462344301e+01
1.717103679050e+01
1.678164653492e+01
1.615945072886e+01
1.613471285953e+01
1.679809345290e+01
1.717148799667e+01
1.719548962708e+01
1.703750654870e+01
1.715904552429e+01
1.717141528746e+01
1.678302518079e+01
1.616054524712e+01
1.719409513015e+01
1.703670899230e+01
1.716268385727e+01
1.717736361254e+01
1.676478056817e+01
1.618903775752e+01
1.719603569737e+01
1.703740549469e+01
1.715816049581e+01
1.715907315365e+01
1.703722006705e+01
1.719578251343e+01
1.677674124940e+01
1.704053487588e+01
1.677823469194e+01
1.703624408981e+01
1.677615829620e+01
1.703579433118e+01
1.677965157660e+01
1.704567438392e+01
1.300043995599e+01
2.365382163640e+01
2.365604360126e+01
2.365888185764e+01
2.365963125077e+01
2.059128444117e+01
2.061686025091e+01
2.086761800814e+01
2.017228758805e+01
2.341913281976e+01
2.283240826642e+01
2.232751176468e+01
2.234785485581e+01
2.284096230655e+01
2.342216258127e+01
2.344835805040e+01
2.315919355713e+01
2.338921597266e+01
2.341875503742e+01
2.283138526708e+01
2.231463449674e+01
2.344468303110e+01
2.315768287776e+01
2.339542192328e+01
2.342439800699e+01
2.281891363502e+01
2.226475662925e+01
2.344568566918e+01
2.315643000487e+01
2.338860815692e+01
2.339008545035e+01
2.315724520043e+01
2.344628398706e+01
2.272060924593e+01
2.319221616190e+01
2.272862398985e+01
2.318068454941e+01
2.273485988428e+01
2.318349378505e+01
2.273381747235e+01
2.319910576622e+01
3.267546792074e+01
2.636440402719e+01
2.636667654165e+01
2.636708372424e+01
2.637407365247e+01
2.336033790375e+01
2.340363929981e+01
2.356290371523e+01
2.313078829139e+01
2.608510306329e+01
2.545936859058e+01
2.489688235386e+01
2.490386047035e+01
2.547179188277e+01
2.608463833822e+01
2.610700089674e+01
2.577299162811e+01
2.605287667417e+01
2.608587150674e+01
2.545818490275e+01
2.488733366434e+01
2.610364829270e+01
2.577210254652e+01
2.605950080946e+01
2.609543549995e+01
2.544001384061e+01
2.485585056233e+01
2.610616684005e+01
2.577161362321e+01
2.605127923172e+01
2.605307015499e+01
2.577183125141e+01
2.610607287860e+01
2.533051814357e+01
2.582571990417e+01
2.533656191479e+01
2.581188160466e+01
2.533848724352e+01
2.581819364577e+01
2.534041585879e+01
2.583432001391e+01
3.419782552678e+01
2.752470194207e+01
2.752739632723e+01
2.752923246910e+01
2.753317192591e+01
2.490543765841e+01
2.493129779910e+01
2.507946320445e+01
2.466967776218e+01
2.723427257318e+01
2.658611064300e+01
2.605115867964e+01
2.605678760155e+01
2.659753655721e+01
2.723475451387e+01
2.725410858223e+01
2.690438340933e+01
2.719617433057e+01
2.723507403529e+01
2.658489821140e+01
2.603902631428e+01
2.725085382286e+01
2.690321083910e+01
2.720314450701e+01
2.724355907462e+01
2.656800921640e+01
2.600971973464e+01
2.725329444811e+01
2.690233237194e+01
2.719512661035e+01
2.719691388002e+01
2.690295469589e+01
2.725290663551e+01
2.644373047798e+01
2.696385239296e+01
2.645039524354e+01
2.694895436298e+01
2.645265005073e+01
2.695576269153e+01
2.645413890489e+01
2.697244230848e+01
3.466065894960e+01
2.786877335661e+01
2.787158148373e+01
2.787333991446e+01
2.787682851249e+01
2.588730852080e+01
2.590531002778e+01
2.602246035788e+01
2.569567706178e+01
2.758579493399e+01
2.698359152529e+01
2.656768099451e+01
2.657142018314e+01
2.699236381527e+01
2.758616996518e+01
2.759878678802e+01
2.725783518062e+01
2.754575548434e+01
2.758681423841e+01
2.698212763716e+01
2.655425568485e+01
2.759587091020e+01
2.725675508619e+01
2.755236321061e+01
2.759427294662e+01
2.696812566409e+01
2.652938250036e+01
2.759831189777e+01
2.725573946293e+01
2.754497698249e+01
2.754666025081e+01
2.725650788920e+01
2.759770735736e+01
2.682961894008e+01
2.732469372016e+01
2.683581816853e+01
2.730944132745e+01
2.683743071801e+01
2.731745251492e+01
2.683881770491e+01
2.733283421466e+01
3.498024521128e+01
2.793547948423e+01
2.793834995046e+01
2.794016692576e+01
2.794302527411e+01
2.664450536226e+01
2.664993926995e+01
2.673496963635e+01
2.649216780494e+01
2.766094355542e+01
2.709696326211e+01
2.679394248437e+01
2.679557099854e+01
2.710298973408e+01
2.766161529076e+01
2.766929336446e+01
2.733721766827e+01
2.761948240546e+01
2.766208003964e+01
2.709529048691e+01
2.677879503292e+01
2.766659415462e+01
2.733620585478e+01
2.762578937694e+01
2.766820980965e+01
2.708436982412e+01
2.675878987895e+01
2.766898820802e+01
2.733503754239e+01
2.761895931096e+01
2.762054815980e+01
2.733593796745e+01
2.766828197084e+01
2.693196246201e+01
2.740865604116e+01
2.693788226034e+01
2.739320463385e+01
2.693912187630e+01
2.740203201762e+01
2.694024933934e+01
2.741638248410e+01
3.493078618577e+01
2.794173164994e+01
2.794446128645e+01
2.794636618303e+01
2.794982006691e+01
2.578828840925e+01
2.580770152136e+01
2.592827691645e+01
2.559239959965e+01
2.765793163927e+01
2.704052026075e+01
2.657878099994e+01
2.658206881399e+01
2.705042463026e+01
2.765842384396e+01
2.767369287519e+01
2.733165439963e+01
2.761880459615e+01
2.765886201127e+01
2.703921567776e+01
2.656582922526e+01
2.767067152805e+01
2.733053345796e+01
2.762550749938e+01
2.766659487414e+01
2.702410221730e+01
2.654114580157e+01
2.767311370712e+01
2.732958883653e+01
2.761793611646e+01
2.761965161754e+01
2.733030194976e+01
2.767259559684e+01
2.689256146875e+01
2.739488864712e+01
2.689884881772e+01
2.737990524715e+01
2.690060472791e+01
2.738737399652e+01
2.690208192150e+01
2.740318373471e+01
3.447538277134e+01
2.803618902149e+01
2.803887544187e+01
2.804113680514e+01
2.804338653850e+01
2.655668938311e+01
2.655966713897e+01
2.663645232287e+01
2.641593437507e+01
2.776623930534e+01
2.718809746469e+01
2.680163656070e+01
2.680066065147e+01
2.719633972645e+01
2.776706951475e+01
2.777856622162e+01
2.745223083625e+01
2.772672860603e+01
2.776725604872e+01
2.718680997133e+01
2.678805976101e+01
2.777585982993e+01
2.745113357754e+01
2.773306465624e+01
2.777374004221e+01
2.717387315631e+01
2.677189659370e+01
2.777824972428e+01
2.745013532378e+01
2.772614349379e+01
2.772773426948e+01
2.745095411720e+01
2.777759401642e+01
2.703935928359e+01
2.751633914588e+01
2.704516550068e+01
2.750172367341e+01
2.704631620819e+01
2.750939772721e+01
2.704773538332e+01
2.752413592916e+01
3.264958171378e+01
2.810983135320e+01
2.811241141599e+01
2.811490685119e+01
2.811657052826e+01
2.677780217319e+01
2.677469243498e+01
2.682798129238e+01
2.667080095987e+01
2.784802949589e+01
2.728432239224e+01
2.688475505256e+01
2.688057436294e+01
2.729319197793e+01
2.784878482374e+01
2.785978054248e+01
2.754383106486e+01
2.780936540658e+01
2.784908543949e+01
2.728323940855e+01
2.687226843838e+01
2.785728429135e+01
2.754272419798e+01
2.781552014479e+01
2.785548996093e+01
2.726991419347e+01
2.686189010145e+01
2.785969636413e+01
2.754183218563e+01
2.780886538206e+01
2.781039349038e+01
2.754264120500e+01
2.785893775121e+01
2.714470434174e+01
2.760575754179e+01
2.715008985794e+01
2.759170382237e+01
2.715070159038e+01
2.759903086512e+01
2.715239231656e+01
2.761334469911e+01
3.161105414784e+01
2.815072442671e+01
2.815319228910e+01
2.815584350137e+01
2.815719718579e+01
2.683049341977e+01
2.682400192502e+01
2.686178594533e+01
2.674687949480e+01
2.789437058467e+01
2.733588029343e+01
2.690457726558e+01
2.689789480574e+01
2.734577847474e+01
2.789500521734e+01
2.790659172222e+01
2.759792315957e+01
2.785679855501e+01
2.789544192768e+01
2.733500683549e+01
2.689336163814e+01
2.790423128561e+01
2.759680536902e+01
2.786285393793e+01
2.790202043057e+01
2.732078552483e+01
2.688730509336e+01
2.790668081835e+01
2.759604110008e+01
2.785630989967e+01
2.785780339094e+01
2.759680536218e+01
2.790585755242e+01
2.720604603189e+01
2.765699819203e+01
2.721111007589e+01
2.764347273780e+01
2.721130266358e+01
2.765034603532e+01
2.721328601761e+01
2.766449107859e+01
3.065540759527e+01
2.818405810972e+01
2.818643228304e+01
2.818918656434e+01
2.819034063165e+01
2.683717441050e+01
2.682903746134e+01
2.685666488650e+01
2.676975089114e+01
2.793209233353e+01
2.737737352806e+01
2.691728055111e+01
2.690882996916e+01
2.738818028620e+01
2.793260248134e+01
2.794481201162e+01
2.764208063433e+01
2.789551944632e+01
2.793316916163e+01
2.737667334758e+01
2.690716709627e+01
2.794255406629e+01
2.764095551993e+01
2.790149611456e+01
2.793994441957e+01
2.736163524202e+01
2.690414046748e+01
2.794502952869e+01
2.764029943797e+01
2.789502724018e+01
2.789649528948e+01
2.764102047822e+01
2.794416079285e+01
2.725592906413e+01
2.769866698013e+01
2.726074224047e+01
2.768558682891e+01
2.726062598302e+01
2.769206527749e+01
2.726284630002e+01
2.770608792420e+01
2.992401114361e+01
2.820937380089e+01
2.821167544342e+01
2.821449393272e+01
2.821552608631e+01
2.682273762588e+01
2.681389802042e+01
2.683559882816e+01
2.676518775476e+01
2.796074710583e+01
2.740855429197e+01
2.692555402689e+01
2.691597794961e+01
2.742006153916e+01
2.796116149925e+01
2.797395584428e+01
2.767573593220e+01
2.792500321647e+01
2.796182028498e+01
2.740798383506e+01
2.691628662847e+01
2.797176603249e+01
2.767460570261e+01
2.793092253298e+01
2.796876149499e+01
2.739230757692e+01
2.691518803592e+01
2.797425477717e+01
2.767403114543e+01
2.792450134733e+01
2.792595161718e+01
2.767471609271e+01
2.797336047796e+01
2.729360412582e+01
2.773029129982e+01
2.729824374487e+01
2.771755777232e+01
2.729792924979e+01
2.772371607761e+01
2.730031621247e+01
2.773765890044e+01
2.938469276808e+01
2.822548003042e+01
2.822772768492e+01
2.823058267288e+01
2.823156395494e+01
2.677740621049e+01
2.676883200194e+01
2.678875067583e+01
2.672359196360e+01
2.797897019401e+01
2.742697720828e+01
2.692404999117e+01
2.691392151439e+01
2.743905261586e+01
2.797932075327e+01
2.799280078969e+01
2.769746291007e+01
2.794391149045e+01
2.798002812551e+01
2.742650262728e+01
2.691540292740e+01
2.799064089984e+01
2.769632755561e+01
2.794980286582e+01
2.798712466832e+01
2.741028933511e+01
2.691520530240e+01
2.799313332661e+01
2.769581216451e+01
2.794338891283e+01
2.794483157721e+01
2.769646508409e+01
2.799223447184e+01
2.731693076261e+01
2.775028932167e+01
2.732147719797e+01
2.773781243464e+01
2.732107436327e+01
2.774369998947e+01
2.732356818636e+01
2.775763418755e+01
2.899673353505e+01
2.822302929265e+01
2.822522993702e+01
2.822810503138e+01
2.822915091784e+01
2.664117300804e+01
2.663433506949e+01
2.665805642507e+01
2.658311733096e+01
2.797651773696e+01
2.741764617967e+01
2.688594561168e+01
2.687580161381e+01
2.743044126047e+01
2.797684108044e+01
2.799174946980e+01
2.769661684673e+01
2.794216048354e+01
2.797753505039e+01
2.741726101089e+01
2.687782196762e+01
2.798955367451e+01
2.769547023693e+01
2.794809057040e+01
2.798487813974e+01
2.740030342137e+01
2.687740264685e+01
2.799204998564e+01
2.769500890973e+01
2.794157643650e+01
2.794303353900e+01
2.769561690318e+01
2.799118183585e+01
2.731197514916e+01
2.774736201248e+01
2.731653832611e+01
2.773507934817e+01
2.731618403002e+01
2.774064231864e+01
2.731875497503e+01
2.775476890612e+01
2.864202781910e+01
2.817099066721e+01
2.817311018338e+01
2.817597031977e+01
2.817748896597e+01
2.615925313734e+01
2.615890202590e+01
2.620126100678e+01
2.607710236902e+01
2.791862586033e+01
2.732798048776e+01
2.671553164155e+01
2.670629935264e+01
2.734265639255e+01
2.791894469396e+01
2.793840205494e+01
2.763650022495e+01
2.788559731594e+01
2.791951897126e+01
2.732776538248e+01
2.670828151763e+01
2.793598160962e+01
2.763531375440e+01
2.789177676407e+01
2.792762398461e+01
2.730872984217e+01
2.670527473660e+01
2.793851040515e+01
2.763496043047e+01
2.788479095703e+01
2.788632785391e+01
2.763544688067e+01
2.793777847803e+01
2.722968804909e+01
2.768255308711e+01
2.723451990569e+01
2.767047427574e+01
2.723451244322e+01
2.767530257537e+01
2.723721526946e+01
2.769031259582e+01
2.833687958482e+01
2.814874781132e+01
2.815084648131e+01
2.815371750631e+01
2.815534254144e+01
2.603545247168e+01
2.603633664722e+01
2.608248438680e+01
2.594825109475e+01
2.789458251204e+01
2.729450200632e+01
2.666033235213e+01
2.665117762536e+01
2.730968097201e+01
2.789492438288e+01
2.791568015424e+01
2.761160833902e+01
2.786187670163e+01
2.789544264474e+01
2.729433466399e+01
2.665326425069e+01
2.791319566609e+01
2.761041187881e+01
2.786813222149e+01
2.790372977649e+01
2.727474504953e+01
2.664981665157e+01
2.791573828005e+01
2.761008621456e+01
2.786100879185e+01
2.786257020874e+01
2.761053886929e+01
2.791504244127e+01
2.719795973800e+01
2.765636182125e+01
2.720286926749e+01
2.764432767683e+01
2.720294807788e+01
2.764895609986e+01
2.720568790246e+01
2.766422797851e+01
2.811858191716e+01
2.812041596168e+01
2.812249222369e+01
2.812538289136e+01
2.812715302504e+01
2.582478048633e+01
2.582840006668e+01
2.588262595914e+01
2.572699188293e+01
2.786338668126e+01
2.724912002693e+01
2.658069817328e+01
2.657193979650e+01
2.726509733220e+01
2.786373463515e+01
2.788636930568e+01
2.757893721703e+01
2.783112269659e+01
2.786419672061e+01
2.724902237586e+01
2.657395814493e+01
2.788379226236e+01
2.757772004402e+01
2.783749301136e+01
2.787280223815e+01
2.722854785275e+01
2.656936821335e+01
2.788634919073e+01
2.757743272510e+01
2.783016705644e+01
2.783176528665e+01
2.757784032159e+01
2.788570206461e+01
2.715540773241e+01
2.762187793709e+01
2.716044365665e+01
2.760990203525e+01
2.716067620500e+01
2.761423537101e+01
2.716346798925e+01
2.762989937252e+01
2.796346725569e+01
2.812733174322e+01
2.812935625267e+01
2.813223330655e+01
2.813449784469e+01
2.557095391255e+01
2.557730899152e+01
2.564002120873e+01
2.546184233490e+01
2.786266851445e+01
2.721950839604e+01
2.649240977340e+01
2.648363594826e+01
2.723686896486e+01
2.786302584828e+01
2.788884643952e+01
2.757248283513e+01
2.783081602626e+01
2.786341780399e+01
2.721951632434e+01
2.648611692385e+01
2.788606726894e+01
2.757122213913e+01
2.783743175577e+01
2.787263383805e+01
2.719748840377e+01
2.648067529979e+01
2.788870355435e+01
2.757102268541e+01
2.782970349660e+01
2.783136999638e+01
2.757135665169e+01
2.788816411152e+01
2.712870207558e+01
2.761315980292e+01
2.713393746109e+01
2.760112058767e+01
2.713431349499e+01
2.760509950717e+01
2.713727072897e+01
2.762154353727e+01
2.770867272440e+01
2.835013764843e+01
2.835188541403e+01
2.835482017525e+01
2.835726142223e+01
2.541130239704e+01
2.542466515348e+01
2.550759301065e+01
2.527603647476e+01
2.809418242427e+01
2.744128487271e+01
2.664903995592e+01
2.664173117870e+01
2.746007896612e+01
2.809490636168e+01
2.812639423330e+01
2.781969301331e+01
2.806610871670e+01
2.809463143712e+01
2.744152607953e+01
2.664369167493e+01
2.812336831676e+01
2.781840649178e+01
2.807267377034e+01
2.810402878343e+01
2.741824048244e+01
2.663530541233e+01
2.812582476154e+01
2.781833946921e+01
2.806475954383e+01
2.806645107687e+01
2.781851551908e+01
2.812562771823e+01
2.736541502114e+01
2.784982811035e+01
2.737083091789e+01
2.783886823500e+01
2.737191531590e+01
2.784143975185e+01
2.737474717280e+01
2.785826131526e+01
2.778207631146e+01
2.896050134009e+01
2.896168227931e+01
2.896407460134e+01
2.896406922611e+01
2.748021432617e+01
2.747969122421e+01
2.751761131843e+01
2.740736068596e+01
2.880766498100e+01
2.841743437746e+01
2.797181647248e+01
2.796622096333e+01
2.842789353370e+01
2.880862380827e+01
2.882609761365e+01
2.864144740595e+01
2.878897452766e+01
2.880792612917e+01
2.841758167043e+01
2.796728429053e+01
2.882436500371e+01
2.864059229008e+01
2.879293365204e+01
2.881275388087e+01
2.840468554380e+01
2.796440207760e+01
2.882576017163e+01
2.864038111749e+01
2.878839374137e+01
2.878938929796e+01
2.864063948998e+01
2.882553939198e+01
2.836719277369e+01
2.866104376380e+01
2.837060686464e+01
2.865427818750e+01
2.837138653706e+01
2.865592732941e+01
2.837283118976e+01
2.866598102985e+01
2.835808871052e+01
2.914686104479e+01
2.914768318781e+01
2.914885836840e+01
2.915019850157e+01
2.832927962277e+01
2.832499330289e+01
2.830556942225e+01
2.835519527391e+01
2.902887448318e+01
2.874945526293e+01
2.842127673162e+01
2.841111409970e+01
2.875795428190e+01
2.902858669593e+01
2.903872315887e+01
2.889903412554e+01
2.901467388000e+01
2.902944101016e+01
2.874960328043e+01
2.841940781856e+01
2.903772031617e+01
2.889857386552e+01
2.901753740659e+01
2.903380561008e+01
2.873901187625e+01
2.842726396657e+01
2.903918258091e+01
2.889867791110e+01
2.901413025717e+01
2.901486985403e+01
2.889874025902e+01
2.903873627738e+01
2.871134432805e+01
2.891888120070e+01
2.871297231960e+01
2.891354387883e+01
2.871187104933e+01
2.891569320000e+01
2.871388344577e+01
2.892271111981e+01
2.800919993793e+01
2.932798017361e+01
2.932868080067e+01
2.932935868258e+01
2.933022874322e+01
2.879785837523e+01
2.879365947262e+01
2.878840122468e+01
2.879999686544e+01
2.924539801852e+01
2.906559867089e+01
2.886931269634e+01
2.886413114626e+01
2.907059716996e+01
2.924490381580e+01
2.924859495658e+01
2.915177617903e+01
2.923410118390e+01
2.924588799324e+01
2.906556898671e+01
2.886810807233e+01
2.924804091875e+01
2.915142802040e+01
2.923604152695e+01
2.924892611421e+01
2.905904365573e+01
2.887139949638e+01
2.924903431347e+01
2.915141504866e+01
2.923392339534e+01
2.923436551042e+01
2.915157425253e+01
2.924857968494e+01
2.903499616064e+01
2.917035662893e+01
2.903611178830e+01
2.916629883774e+01
2.903525949568e+01
2.916830619017e+01
2.903655145428e+01
2.917276637627e+01
2.885971510543e+01
2.949327235838e+01
2.949380994653e+01
2.949419155786e+01
2.949462154595e+01
2.919449697599e+01
2.919300426436e+01
2.918948811126e+01
2.919785430969e+01
2.944052215697e+01
2.933614042508e+01
2.923062803206e+01
2.922766462551e+01
2.933895420531e+01
2.943994827556e+01
2.944006547833e+01
2.937886544402e+01
2.943243779978e+01
2.944092442957e+01
2.933607056631e+01
2.922990510559e+01
2.943985146266e+01
2.937865577629e+01
2.943361884728e+01
2.944288666908e+01
2.933223769151e+01
2.923168419400e+01
2.944050033060e+01
2.937860553517e+01
2.943241506441e+01
2.943266909779e+01
2.937875822238e+01
2.944007192868e+01
2.931442861314e+01
2.939385879489e+01
2.931503170210e+01
2.939107443602e+01
2.931429885360e+01
2.939273749040e+01
2.931514775806e+01
2.939526714932e+01
2.916474224215e+01
2.963423584514e+01
2.963462466525e+01
2.963491234712e+01
2.963484398078e+01
2.948204748769e+01
2.948124178143e+01
2.947977043102e+01
2.948314317243e+01
2.960386577834e+01
2.954900381378e+01
2.949772342064e+01
2.949626578394e+01
2.955043325284e+01
2.960342581331e+01
2.960217336818e+01
2.956719005213e+01
2.959854700549e+01
2.960414787496e+01
2.954893758174e+01
2.949733883515e+01
2.960215330013e+01
2.956706612860e+01
2.959920364756e+01
2.960525200042e+01
2.954690292886e+01
2.949811316438e+01
2.960252355675e+01
2.956699501792e+01
2.959861078326e+01
2.959874462872e+01
2.956712665849e+01
2.960216616407e+01
2.953548694506e+01
2.957761933723e+01
2.953579926904e+01
2.957590529055e+01
2.953529749412e+01
2.957704141727e+01
2.953577859391e+01
2.957833675236e+01
2.948026580324e+01
2.994383087048e+01
2.994386426245e+01
2.994390277244e+01
2.994374825429e+01
2.994670458331e+01
2.994674023393e+01
2.994678857140e+01
2.994666764295e+01
2.994379711044e+01
2.994469753108e+01
2.994612280866e+01
2.994614560192e+01
2.994467425170e+01
2.994376937683e+01
2.994347569600e+01
2.994345605477e+01
2.994360781678e+01
2.994381391982e+01
2.994469496140e+01
2.994612985180e+01
2.994351595516e+01
2.994346025725e+01
2.994360867985e+01
2.994379589240e+01