# vtk DataFile Version 3.0
Unstructured Grid from OpenGeoSys
ASCII
DATASET UNSTRUCTURED_GRID
FIELD TimesAndCycles 2
TIME 1 1 double
3.600000000000e+03
CYLCE 1 1 long
1
POINTS 1394 double
0.000000000000e+00 0.000000000000e+00 0.000000000000e+00
5.000000000000e+00 0.000000000000e+00 0.000000000000e+00
5.000000000000e+00 5.000000000000e+00 0.000000000000e+00
0.000000000000e+00 5.000000000000e+00 0.000000000000e+00
2.244234909000e+00 2.244234909000e+00 0.000000000000e+00
2.755765091000e+00 2.244234909000e+00 0.000000000000e+00
2.755765091000e+00 2.755765091000e+00 0.000000000000e+00
2.244234909000e+00 2.755765091000e+00 0.000000000000e+00
7.141316008320e-01 7.141316008320e-01 0.000000000000e+00
1.314642334730e+00 1.314642334730e+00 0.000000000000e+00
1.819609643610e+00 1.819609643610e+00 0.000000000000e+00
1.819609643610e+00 3.180390356390e+00 0.000000000000e+00
1.314642334740e+00 3.685357665260e+00 0.000000000000e+00
7.141316008360e-01 4.285868399160e+00 0.000000000000e+00
0.000000000000e+00 3.750000000000e+00 0.000000000000e+00
0.000000000000e+00 2.500000000000e+00 0.000000000000e+00
0.000000000000e+00 1.250000000000e+00 0.000000000000e+00
4.285868399170e+00 7.141316008320e-01 0.000000000000e+00
3.685357665270e+00 1.314642334730e+00 0.000000000000e+00
3.180390356390e+00 1.819609643610e+00 0.000000000000e+00
1.250000000000e+00 0.000000000000e+00 0.000000000000e+00
2.500000000000e+00 0.000000000000e+00 0.000000000000e+00
3.750000000000e+00 0.000000000000e+00 0.000000000000e+00
4.285868399170e+00 4.285868399170e+00 0.000000000000e+00
3.685357665270e+00 3.685357665270e+00 0.000000000000e+00
3.180390356390e+00 3.180390356390e+00 0.000000000000e+00
5.000000000000e+00 1.250000000000e+00 0.000000000000e+00
5.000000000000e+00 2.500000000000e+00 0.000000000000e+00
5.000000000000e+00 3.750000000000e+00 0.000000000000e+00
3.750000000000e+00 5.000000000000e+00 0.000000000000e+00
2.500000000000e+00 5.000000000000e+00 0.000000000000e+00
1.250000000000e+00 5.000000000000e+00 0.000000000000e+00
9.560744151940e-01 2.677827143250e+00 0.000000000000e+00
6.659597640160e-01 1.438876720610e+00 0.000000000000e+00
2.309219871940e+00 9.522638293400e-01 0.000000000000e+00
3.458157207860e+00 6.354750772000e-01 0.000000000000e+00
4.043925584810e+00 2.322172856750e+00 0.000000000000e+00
4.334040235980e+00 3.561123279390e+00 0.000000000000e+00
2.318530875810e+00 4.048536535600e+00 0.000000000000e+00
3.552396921680e+00 4.370927842320e+00 0.000000000000e+00
2.500000000000e+00 2.500000000000e+00 0.000000000000e+00
0.000000000000e+00 0.000000000000e+00 -5.000000000000e-01
5.000000000000e+00 0.000000000000e+00 -5.000000000000e-01
5.000000000000e+00 5.000000000000e+00 -5.000000000000e-01
0.000000000000e+00 5.000000000000e+00 -5.000000000000e-01
2.244234909000e+00 2.244234909000e+00 -5.000000000000e-01
2.755765091000e+00 2.244234909000e+00 -5.000000000000e-01
2.755765091000e+00 2.755765091000e+00 -5.000000000000e-01
2.244234909000e+00 2.755765091000e+00 -5.000000000000e-01
7.141316008320e-01 7.141316008320e-01 -5.000000000000e-01
1.314642334730e+00 1.314642334730e+00 -5.000000000000e-01
1.819609643610e+00 1.819609643610e+00 -5.000000000000e-01
1.819609643610e+00 3.180390356390e+00 -5.000000000000e-01
1.314642334740e+00 3.685357665260e+00 -5.000000000000e-01
7.141316008360e-01 4.285868399160e+00 -5.000000000000e-01
0.000000000000e+00 3.750000000000e+00 -5.000000000000e-01
0.000000000000e+00 2.500000000000e+00 -5.000000000000e-01
0.000000000000e+00 1.250000000000e+00 -5.000000000000e-01
4.285868399170e+00 7.141316008320e-01 -5.000000000000e-01
3.685357665270e+00 1.314642334730e+00 -5.000000000000e-01
3.180390356390e+00 1.819609643610e+00 -5.000000000000e-01
1.250000000000e+00 0.000000000000e+00 -5.000000000000e-01
2.500000000000e+00 0.000000000000e+00 -5.000000000000e-01
3.750000000000e+00 0.000000000000e+00 -5.000000000000e-01
4.285868399170e+00 4.285868399170e+00 -5.000000000000e-01
3.685357665270e+00 3.685357665270e+00 -5.000000000000e-01
3.180390356390e+00 3.180390356390e+00 -5.000000000000e-01
5.000000000000e+00 1.250000000000e+00 -5.000000000000e-01
5.000000000000e+00 2.500000000000e+00 -5.000000000000e-01
5.000000000000e+00 3.750000000000e+00 -5.000000000000e-01
3.750000000000e+00 5.000000000000e+00 -5.000000000000e-01
2.500000000000e+00 5.000000000000e+00 -5.000000000000e-01
1.250000000000e+00 5.000000000000e+00 -5.000000000000e-01
9.560744151940e-01 2.677827143250e+00 -5.000000000000e-01
6.659597640160e-01 1.438876720610e+00 -5.000000000000e-01
2.309219871940e+00 9.522638293400e-01 -5.000000000000e-01
3.458157207860e+00 6.354750772000e-01 -5.000000000000e-01
4.043925584810e+00 2.322172856750e+00 -5.000000000000e-01
4.334040235980e+00 3.561123279390e+00 -5.000000000000e-01
2.318530875810e+00 4.048536535600e+00 -5.000000000000e-01
3.552396921680e+00 4.370927842320e+00 -5.000000000000e-01
2.500000000000e+00 2.500000000000e+00 -5.000000000000e-01
0.000000000000e+00 0.000000000000e+00 -1.000000000000e+00
5.000000000000e+00 0.000000000000e+00 -1.000000000000e+00
5.000000000000e+00 5.000000000000e+00 -1.000000000000e+00
0.000000000000e+00 5.000000000000e+00 -1.000000000000e+00
2.244234909000e+00 2.244234909000e+00 -1.000000000000e+00
2.755765091000e+00 2.244234909000e+00 -1.000000000000e+00
2.755765091000e+00 2.755765091000e+00 -1.000000000000e+00
2.244234909000e+00 2.755765091000e+00 -1.000000000000e+00
7.141316008320e-01 7.141316008320e-01 -1.000000000000e+00
1.314642334730e+00 1.314642334730e+00 -1.000000000000e+00
1.819609643610e+00 1.819609643610e+00 -1.000000000000e+00
1.819609643610e+00 3.180390356390e+00 -1.000000000000e+00
1.314642334740e+00 3.685357665260e+00 -1.000000000000e+00
7.141316008360e-01 4.285868399160e+00 -1.000000000000e+00
0.000000000000e+00 3.750000000000e+00 -1.000000000000e+00
0.000000000000e+00 2.500000000000e+00 -1.000000000000e+00
0.000000000000e+00 1.250000000000e+00 -1.000000000000e+00
4.285868399170e+00 7.141316008320e-01 -1.000000000000e+00
3.685357665270e+00 1.314642334730e+00 -1.000000000000e+00
3.180390356390e+00 1.819609643610e+00 -1.000000000000e+00
1.250000000000e+00 0.000000000000e+00 -1.000000000000e+00
2.500000000000e+00 0.000000000000e+00 -1.000000000000e+00
3.750000000000e+00 0.000000000000e+00 -1.000000000000e+00
4.285868399170e+00 4.285868399170e+00 -1.000000000000e+00
3.685357665270e+00 3.685357665270e+00 -1.000000000000e+00
3.180390356390e+00 3.180390356390e+00 -1.000000000000e+00
5.000000000000e+00 1.250000000000e+00 -1.000000000000e+00
5.000000000000e+00 2.500000000000e+00 -1.000000000000e+00
5.000000000000e+00 3.750000000000e+00 -1.000000000000e+00
3.750000000000e+00 5.000000000000e+00 -1.000000000000e+00
2.500000000000e+00 5.000000000000e+00 -1.000000000000e+00
1.250000000000e+00 5.000000000000e+00 -1.000000000000e+00
9.560744151940e-01 2.677827143250e+00 -1.000000000000e+00
6.659597640160e-01 1.438876720610e+00 -1.000000000000e+00
2.309219871940e+00 9.522638293400e-01 -1.000000000000e+00
3.458157207860e+00 6.354750772000e-01 -1.000000000000e+00
4.043925584810e+00 2.322172856750e+00 -1.000000000000e+00
4.334040235980e+00 3.561123279390e+00 -1.000000000000e+00
2.318530875810e+00 4.048536535600e+00 -1.000000000000e+00
3.552396921680e+00 4.370927842320e+00 -1.000000000000e+00
2.500000000000e+00 2.500000000000e+00 -1.000000000000e+00
0.000000000000e+00 0.000000000000e+00 -3.000000000000e+00
5.000000000000e+00 0.000000000000e+00 -3.000000000000e+00
5.000000000000e+00 5.000000000000e+00 -3.000000000000e+00
0.000000000000e+00 5.000000000000e+00 -3.000000000000e+00
2.244234909000e+00 2.244234909000e+00 -3.000000000000e+00
2.755765091000e+00 2.244234909000e+00 -3.000000000000e+00
2.755765091000e+00 2.755765091000e+00 -3.000000000000e+00
2.244234909000e+00 2.755765091000e+00 -3.000000000000e+00
7.141316008320e-01 7.141316008320e-01 -3.000000000000e+00
1.314642334730e+00 1.314642334730e+00 -3.000000000000e+00
1.819609643610e+00 1.819609643610e+00 -3.000000000000e+00
1.819609643610e+00 3.180390356390e+00 -3.000000000000e+00
1.314642334740e+00 3.685357665260e+00 -3.000000000000e+00
7.141316008360e-01 4.285868399160e+00 -3.000000000000e+00
0.000000000000e+00 3.750000000000e+00 -3.000000000000e+00
0.000000000000e+00 2.500000000000e+00 -3.000000000000e+00
0.000000000000e+00 1.250000000000e+00 -3.000000000000e+00
4.285868399170e+00 7.141316008320e-01 -3.000000000000e+00
3.685357665270e+00 1.314642334730e+00 -3.000000000000e+00
3.180390356390e+00 1.819609643610e+00 -3.000000000000e+00
1.250000000000e+00 0.000000000000e+00 -3.000000000000e+00
2.500000000000e+00 0.000000000000e+00 -3.000000000000e+00
3.750000000000e+00 0.000000000000e+00 -3.000000000000e+00
4.285868399170e+00 4.285868399170e+00 -3.000000000000e+00
3.685357665270e+00 3.685357665270e+00 -3.000000000000e+00
3.180390356390e+00 3.180390356390e+00 -3.000000000000e+00
5.000000000000e+00 1.250000000000e+00 -3.000000000000e+00
5.000000000000e+00 2.500000000000e+00 -3.000000000000e+00
5.000000000000e+00 3.750000000000e+00 -3.000000000000e+00
3.750000000000e+00 5.000000000000e+00 -3.000000000000e+00
2.500000000000e+00 5.000000000000e+00 -3.000000000000e+00
1.250000000000e+00 5.000000000000e+00 -3.000000000000e+00
9.560744151940e-01 2.677827143250e+00 -3.000000000000e+00
6.659597640160e-01 1.438876720610e+00 -3.000000000000e+00
2.309219871940e+00 9.522638293400e-01 -3.000000000000e+00
3.458157207860e+00 6.354750772000e-01 -3.000000000000e+00
4.043925584810e+00 2.322172856750e+00 -3.000000000000e+00
4.334040235980e+00 3.561123279390e+00 -3.000000000000e+00
2.318530875810e+00 4.048536535600e+00 -3.000000000000e+00
3.552396921680e+00 4.370927842320e+00 -3.000000000000e+00
2.500000000000e+00 2.500000000000e+00 -3.000000000000e+00
0.000000000000e+00 0.000000000000e+00 -5.000000000000e+00
5.000000000000e+00 0.000000000000e+00 -5.000000000000e+00
5.000000000000e+00 5.000000000000e+00 -5.000000000000e+00
0.000000000000e+00 5.000000000000e+00 -5.000000000000e+00
2.244234909000e+00 2.244234909000e+00 -5.000000000000e+00
[...]
POINT_DATA 1394
SCALARS TEMPERATURE1 double 1
LOOKUP_TABLE default
1.000000000000e+01
1.000000000000e+01
1.000000000000e+01
1.000000000000e+01
1.000000000000e+01
1.000000000000e+01
1.000000000000e+01
1.000000000000e+01
1.000000000000e+01
1.000000000000e+01
1.000000000000e+01
1.000000000000e+01
1.000000000000e+01
1.000000000000e+01
1.000000000000e+01
1.000000000000e+01
1.000000000000e+01
1.000000000000e+01
1.000000000000e+01
1.000000000000e+01
1.000000000000e+01
1.000000000000e+01
1.000000000000e+01
1.000000000000e+01
1.000000000000e+01
1.000000000000e+01
1.000000000000e+01
1.000000000000e+01
1.000000000000e+01
1.000000000000e+01
1.000000000000e+01
1.000000000000e+01
1.000000000000e+01
1.000000000000e+01
1.000000000000e+01
1.000000000000e+01
1.000000000000e+01
1.000000000000e+01
1.000000000000e+01
1.000000000000e+01
1.000000000000e+01
1.675221323099e+01
1.675226585596e+01
1.674208553942e+01
1.676514194574e+01
1.706695698342e+01
1.711019529406e+01
1.719753349686e+01
1.697887658378e+01
1.664541464318e+01
1.657553771356e+01
1.702651386900e+01
1.704783768014e+01
1.656194045559e+01
1.664239468505e+01
1.663895249747e+01
1.651316131674e+01
1.664292603234e+01
1.664653674403e+01
1.657113273813e+01
1.701756399489e+01
1.663650366054e+01
1.651479160525e+01
1.664417184813e+01
1.664932041405e+01
1.657969666414e+01
1.698174385147e+01
1.663812356250e+01
1.651494228930e+01
1.664017222812e+01
1.664093412796e+01
1.651382470057e+01
1.663967929338e+01
1.642083835042e+01
1.655876155106e+01
1.642189858096e+01
1.655069213636e+01
1.642172004591e+01
1.656042014223e+01
1.642153541815e+01
1.656236771256e+01
1.411682408443e+01
2.273806770309e+01
2.274233200151e+01
2.274348970004e+01
2.273020166922e+01
2.945959501277e+01
2.933673960055e+01
2.904036296763e+01
2.980581684258e+01
2.274664793148e+01
2.336321807895e+01
2.466721829756e+01
2.465234973824e+01
2.333607760357e+01
2.273667336834e+01
2.258986470472e+01
2.263559599424e+01
2.267732691661e+01
2.275128075933e+01
2.336317534170e+01
2.466022907752e+01
2.259738239524e+01
2.263410191861e+01
2.267455220559e+01
2.274609681928e+01
2.339319405603e+01
2.470876776772e+01
2.259805814773e+01
2.263124567276e+01
2.268663585325e+01
2.268314848750e+01
2.263629922624e+01
2.259107466338e+01
2.322997527140e+01
2.282954422083e+01
2.322399449646e+01
2.281703042177e+01
2.321090453871e+01
2.283908979917e+01
2.321136753495e+01
2.282005646311e+01
4.632520227626e+01
2.539269895049e+01
2.539936717516e+01
2.541615246123e+01
2.536536668861e+01
3.209545347048e+01
3.198640415805e+01
3.174573018616e+01
3.235920333413e+01
2.550209387274e+01
2.623223814341e+01
2.754866912107e+01
2.753522399155e+01
2.620706265274e+01
2.549891205052e+01
2.533786133609e+01
2.548339812864e+01
2.541692008103e+01
2.550575981469e+01
2.623326332881e+01
2.753554465765e+01
2.534887454296e+01
2.548027668633e+01
2.541228230096e+01
2.549081398941e+01
2.626645797388e+01
2.757580846782e+01
2.534623868095e+01
2.547474611045e+01
2.542943758799e+01
2.542599955146e+01
2.548211322145e+01
2.533640297093e+01
2.616237788530e+01
2.566068089362e+01
2.615815070064e+01
2.565298233367e+01
2.615070618773e+01
2.566969781351e+01
2.614727018979e+01
2.564747495531e+01
4.639334253647e+01
2.656491674790e+01
2.657122389630e+01
2.658566167237e+01
2.654185515264e+01
3.235542027220e+01
3.225080141520e+01
3.201195004446e+01
3.262269358455e+01
2.662642124975e+01
2.723593058778e+01
2.831340253781e+01
2.829684871836e+01
2.721648570131e+01
2.662150050839e+01
2.647161866143e+01
2.656574271498e+01
2.654377979257e+01
2.663029983148e+01
2.723723889392e+01
2.830452881958e+01
2.648178272643e+01
2.656278961872e+01
2.654037364244e+01
2.661971961791e+01
2.726296312832e+01
2.834794260524e+01
2.648018553559e+01
2.655806113184e+01
2.655532895598e+01
2.655215648169e+01
2.656479415440e+01
2.647067072102e+01
2.716920990764e+01
2.674207732923e+01
2.716499314067e+01
2.673310981975e+01
2.715616333046e+01
2.674977192592e+01
2.715449409262e+01
2.673069185754e+01
4.599113018413e+01
2.690902835226e+01
2.691531649738e+01
2.692975413194e+01
2.688673664344e+01
3.233393989803e+01
3.223351521665e+01
3.200605527906e+01
3.258686907183e+01
2.695397517259e+01
2.751018734273e+01
2.850342374151e+01
2.848662695034e+01
2.749270090905e+01
2.694913931327e+01
2.680422434950e+01
2.687842620153e+01
2.687120737668e+01
2.695780962599e+01
2.751153022785e+01
2.849474210576e+01
2.681405260612e+01
2.687542473048e+01
2.686827050838e+01
2.694811533026e+01
2.753490036593e+01
2.853679695415e+01
2.681262607311e+01
2.687079079146e+01
2.688245153633e+01
2.687943578867e+01
2.687740773449e+01
2.680324366854e+01
2.744288149813e+01
2.705271864776e+01
2.743906342823e+01
2.704336352233e+01
2.743045643543e+01
2.705973494458e+01
2.742904114807e+01
2.704207093950e+01
4.539480642144e+01
2.696626969948e+01
2.697244843145e+01
2.698636877434e+01
2.694485159811e+01
3.210479643282e+01
3.200873954496e+01
3.179079789010e+01
3.234736116615e+01
2.700362003341e+01
2.753635690769e+01
2.847777224462e+01
2.846151108337e+01
2.752005037071e+01
2.699849710230e+01
2.685677471362e+01
2.692277649383e+01
2.692221856674e+01
2.700744395969e+01
2.753769676877e+01
2.847009623587e+01
2.686638400785e+01
2.691982858038e+01
2.691948403606e+01
2.699864206461e+01
2.755951831922e+01
2.851079893521e+01
2.686510794075e+01
2.691536673035e+01
2.693318683220e+01
2.693025041262e+01
2.692181964808e+01
2.685586394108e+01
2.747119622383e+01
2.709508453828e+01
2.746742886041e+01
2.708566423579e+01
2.745876947839e+01
2.710183660908e+01
2.745763372827e+01
2.708481345655e+01
4.475148376084e+01
2.696881753650e+01
2.697495701448e+01
2.698881161045e+01
2.694763193931e+01
3.207015169125e+01
3.197415960617e+01
3.175644379786e+01
3.231244277312e+01
2.700346215133e+01
2.752543467702e+01
2.845394415258e+01
2.843745943175e+01
2.750938534276e+01
2.699843087398e+01
2.685818195300e+01
2.692064759722e+01
2.692241077638e+01
2.700726017412e+01
2.752676410877e+01
2.844617207272e+01
2.686767998754e+01
2.691771073349e+01
2.691976094595e+01
2.699855614144e+01
2.754825974232e+01
2.848691688951e+01
2.686644055361e+01
2.691328166547e+01
2.693327621684e+01
2.693037953756e+01
2.691968482514e+01
2.685727586909e+01
2.745967472746e+01
2.709179430396e+01
2.745598747118e+01
2.708234456215e+01
2.744739612963e+01
2.709841759072e+01
2.744629347468e+01
2.708169842647e+01
4.459059331355e+01
2.699818091720e+01
2.700385564976e+01
2.701568772705e+01
2.698049662663e+01
3.113109903422e+01
3.104992684021e+01
3.086564187298e+01
3.133618837654e+01
2.700313672759e+01
2.743133896689e+01
2.818243336768e+01
2.816784718587e+01
2.741915003032e+01
2.699735233954e+01
2.687014722831e+01
2.689934955391e+01
2.692738088545e+01
2.700684094674e+01
2.743257324308e+01
2.817744109568e+01
2.687865628274e+01
2.689662804799e+01
2.692552965812e+01
2.700114897102e+01
2.744886601639e+01
2.821304356389e+01
2.687796851731e+01
2.689281717957e+01
2.693712290836e+01
2.693454829160e+01
2.689858083093e+01
2.686948432458e+01
2.736899040298e+01
2.706214333870e+01
2.736564508192e+01
2.705237112991e+01
2.735708346081e+01
2.706773300800e+01
2.735687827260e+01
2.705360960208e+01
4.219220337847e+01
2.703275543850e+01
2.703807715641e+01
2.704850764499e+01
2.701758720277e+01
3.047938419720e+01
3.040841554427e+01
3.024778036645e+01
3.065780075799e+01
2.701629085444e+01
2.737288707962e+01
2.799455179882e+01
2.798119959673e+01
2.736346925188e+01
2.701012617196e+01
2.689318080396e+01
2.689783355438e+01
2.694459875576e+01
2.701989461667e+01
2.737403819184e+01
2.799132191088e+01
2.690092310632e+01
2.689527280013e+01
2.694334192629e+01
2.701625838642e+01
2.738661043478e+01
2.802326491644e+01
2.690061994294e+01
2.689190274396e+01
2.695348410824e+01
2.695116558256e+01
2.689718603158e+01
2.689267549398e+01
2.731261235007e+01
2.705347772566e+01
2.730957867786e+01
2.704352244764e+01
2.730115105255e+01
2.705826038026e+01
2.730154634544e+01
2.704613571828e+01
4.037531222542e+01
2.706814003318e+01
2.707317508265e+01
2.708250410703e+01
2.705494200766e+01
2.998594010975e+01
2.992285001821e+01
2.978049057339e+01
3.014374065297e+01
2.703534758931e+01
2.733595140344e+01
2.785748329835e+01
2.784508591310e+01
2.732865872335e+01
2.702892514868e+01
2.692021998930e+01
2.690603390689e+01
2.696698779037e+01
2.703886194498e+01
2.733703333659e+01
2.785557261082e+01
2.692734853676e+01
2.690360548301e+01
2.696619025802e+01
2.703679105338e+01
2.734674721342e+01
2.788466226375e+01
2.692734016649e+01
2.690058129021e+01
2.697518847069e+01
2.697307435628e+01
2.690547993694e+01
2.691983597864e+01
2.727728550067e+01
2.705569279285e+01
2.727450366356e+01
2.704562656132e+01
2.726620986120e+01
2.705984147389e+01
2.726705773804e+01
2.704928808747e+01
3.895425833187e+01
2.710234920106e+01
2.710715962300e+01
2.711565781063e+01
2.709063852771e+01
2.963262830781e+01
2.957526422036e+01
2.944624326624e+01
2.977535911579e+01
2.705753233816e+01
2.731573728374e+01
2.776305622586e+01
2.775133944841e+01
2.731000073674e+01
2.705095721430e+01
2.694865183698e+01
2.692045561258e+01
2.699179428142e+01
2.706097012660e+01
2.731676245148e+01
2.776206566719e+01
2.695530387210e+01
2.691813198663e+01
2.699134029758e+01
2.706003434190e+01
2.732437697945e+01
2.778905628616e+01
2.695551323983e+01
2.691536816170e+01
2.699946666094e+01
2.699751061139e+01
2.691997006328e+01
2.694835730633e+01
2.725814513618e+01
2.706528495385e+01
2.725556286717e+01
2.705515667292e+01
2.724739536723e+01
2.706895135138e+01
2.724856820131e+01
2.705959468597e+01
3.789135131196e+01
2.713357182424e+01
2.713821655818e+01
2.714612827455e+01
2.712290730253e+01
2.940329838815e+01
2.934974528162e+01
2.922958259289e+01
2.953604336277e+01
2.708061952283e+01
2.730911308334e+01
2.770573618592e+01
2.769445385599e+01
2.730442314467e+01
2.707397103137e+01
2.697630234592e+01
2.693851478621e+01
2.701682157376e+01
2.708399605042e+01
2.731009509794e+01
2.770532862372e+01
2.698260891998e+01
2.693626961860e+01
2.701660468663e+01
2.708381675208e+01
2.731629115967e+01
2.773091404448e+01
2.698296743796e+01
2.693368866100e+01
2.702411338042e+01
2.702227090875e+01
2.693807633791e+01
2.697606995348e+01
2.725216312314e+01
2.707968781302e+01
2.724972641457e+01
2.706953609451e+01
2.724166604808e+01
2.708301508838e+01
2.724305353204e+01
2.707450325977e+01
3.716105210244e+01
2.716063906044e+01
2.716517439163e+01
2.717272407284e+01
2.715061392906e+01
2.928680882838e+01
2.923529445741e+01
2.911980431592e+01
2.941434065337e+01
2.710307571039e+01
2.731368688758e+01
2.768130606387e+01
2.767022544467e+01
2.730957745501e+01
2.709641720659e+01
2.700169912241e+01
2.695835661091e+01
2.704055686320e+01
2.710640777861e+01
2.731463960302e+01
2.768118241702e+01
2.700778463705e+01
2.695616450953e+01
2.704047919542e+01
2.710664356948e+01
2.732004011303e+01
2.770601913834e+01
2.700823061625e+01
2.695369488581e+01
2.704760814807e+01
2.704583676200e+01
2.695794641694e+01
2.700150477851e+01
2.725697596089e+01
2.709705083665e+01
2.725463151997e+01
2.708690443309e+01
2.724665184348e+01
2.710017359118e+01
2.724815620096e+01
2.709217681884e+01
3.674369285620e+01
2.718307339238e+01
2.718755382603e+01
2.719495340682e+01
2.717330124339e+01
2.927637247942e+01
2.922522499403e+01
2.911041187769e+01
2.940327278049e+01
2.712422628375e+01
2.732832166615e+01
2.768751999976e+01
2.767641833905e+01
2.732435353013e+01
2.711761054888e+01
2.702420141621e+01
2.697913984534e+01
2.706234177904e+01
2.712753154066e+01
2.732925945765e+01
2.768740687936e+01
2.703018662315e+01
2.697697608969e+01
2.706231006544e+01
2.712786401736e+01
2.733445189624e+01
2.771212703310e+01
2.703066237652e+01
2.697455004487e+01
2.706928804990e+01
2.706754629348e+01
2.697874074301e+01
2.702402310809e+01
2.727148495738e+01
2.711653133275e+01
2.726917922014e+01
2.710641433973e+01
2.726124909113e+01
2.711957964448e+01
2.726278027668e+01
2.711178001223e+01
3.662908463904e+01
2.720092710940e+01
2.720541018479e+01
2.721289727091e+01
2.719098867069e+01
2.938574626175e+01
2.933300770390e+01
2.921423037723e+01
2.951732762654e+01
2.714434543415e+01
2.735371790083e+01
2.772677310054e+01
2.771536048868e+01
2.734941148836e+01
2.713784904774e+01
2.704405484109e+01
2.700129947853e+01
2.708240674031e+01
2.714764034025e+01
2.735465523759e+01
2.772633858628e+01
2.705006479160e+01
2.699913766338e+01
2.708232318592e+01
2.714770893442e+01
2.736028257135e+01
2.775168575515e+01
2.705050772228e+01
2.699668097534e+01
2.708939047615e+01
2.708763599201e+01
2.700089079460e+01
2.704386749262e+01
2.729625742316e+01
2.713856620711e+01
2.729393901957e+01
2.712850595106e+01
2.728603299587e+01
2.714167395210e+01
2.728748965395e+01
2.713374274301e+01
3.682272750374e+01
2.720163739639e+01
2.720612578234e+01
2.721363706122e+01
2.719163646015e+01
2.940862444404e+01
2.935560481029e+01
2.923608862925e+01
2.954109598492e+01
2.714586782016e+01
2.735773027749e+01
2.773524792681e+01
2.772381265850e+01
2.735332237415e+01
2.713938205248e+01
2.704531684903e+01
2.700349572807e+01
2.708387483672e+01
2.714916405906e+01
2.735866828272e+01
2.773476324343e+01
2.705134634782e+01
2.700133293448e+01
2.708376956767e+01
2.714916788617e+01
2.736442462693e+01
2.776021149970e+01
2.705177757930e+01
2.699886573824e+01
2.709087888532e+01
2.708911643232e+01
2.700308568308e+01
2.704512700095e+01
2.730022803510e+01
2.714088936783e+01
2.729789687112e+01
2.713084506562e+01
2.728998775840e+01
2.714402682103e+01
2.729142470640e+01
2.713602853465e+01
3.689199203896e+01
2.720759898226e+01
2.721209756782e+01
2.721966957952e+01
2.719751115496e+01
2.944832922841e+01
2.939458217861e+01
2.927347057984e+01
2.958253378381e+01
2.715247993299e+01
2.736605988559e+01
2.774793792153e+01
2.773634836719e+01
2.736155377136e+01
2.714603447262e+01
2.705172429782e+01
2.701056281788e+01
2.709035023137e+01
2.715577565013e+01
2.736700606955e+01
2.774733583389e+01
2.705777132863e+01
2.700839345713e+01
2.709023084174e+01
2.715568678935e+01
2.737290167187e+01
2.777307594756e+01
2.705819111336e+01
2.700591052912e+01
2.709738209171e+01
2.709561308828e+01
2.701014628526e+01
2.705152836187e+01
2.730836843497e+01
2.714808083617e+01
2.730603432390e+01
2.713804180966e+01
2.729812604272e+01
2.715123246135e+01
2.729953927161e+01
2.714318870441e+01
3.697658218776e+01
2.728670967857e+01
2.729122704227e+01
2.729886432913e+01
2.727662393844e+01
2.953233775660e+01
2.947864107084e+01
2.935688335507e+01
2.966779223373e+01
2.723042271065e+01
2.744287646170e+01
2.782538985992e+01
2.781370317388e+01
2.743840041083e+01
2.722397615100e+01
2.712934547667e+01
2.708681566753e+01
2.716793110786e+01
2.723373234699e+01
2.744380378648e+01
2.782474704829e+01
2.713539306955e+01
2.708462930660e+01
2.716781843799e+01
2.723368191079e+01
2.744967802628e+01
2.785059528974e+01
2.713582148685e+01
2.708214369440e+01
2.717498530450e+01
2.717322413267e+01
2.708640508491e+01
2.712915122281e+01
2.738430284824e+01
2.722509611014e+01
2.738195810137e+01
2.721495969997e+01
2.737401882913e+01
2.722825897878e+01
2.737546249589e+01
2.722023325036e+01
3.709679530102e+01
2.764833372680e+01
2.765270178851e+01
2.766072562638e+01
2.763789322409e+01
2.988565399135e+01
2.982920754952e+01
2.970322229341e+01
3.002418514800e+01
2.759851039652e+01
2.781255358168e+01
2.816962857822e+01
2.815680167850e+01
2.780876736128e+01
2.759237555510e+01
2.749889134389e+01
2.746395340202e+01
2.753676623309e+01
2.760167502453e+01
2.781376517165e+01
2.816918932071e+01
2.750488464051e+01
2.746162738364e+01
2.753658092202e+01
2.760145574800e+01
2.781936016249e+01
2.819694497681e+01
2.750520156104e+01
2.745918201263e+01
2.754393836740e+01
2.754210025226e+01
2.746350267392e+01
2.749867676093e+01
2.776288649848e+01
2.759817875232e+01
2.776052908129e+01
2.758858176938e+01
2.775274775493e+01
2.760124262043e+01
2.775415820257e+01
2.759319540953e+01
3.733470685728e+01
2.846253884361e+01
2.846508651309e+01
2.846998814729e+01
2.845676177944e+01
2.988059127932e+01
2.983693055671e+01
2.972955174253e+01
3.000580480863e+01
2.842089022193e+01
2.851162965902e+01
2.865570594144e+01
2.864249186618e+01
2.851129079414e+01
2.841716538342e+01
2.836395733264e+01
2.832956025868e+01
2.838333581368e+01
2.842286220099e+01
2.851269194946e+01
2.865589356422e+01
2.836743800400e+01
2.832812684039e+01
2.838359827926e+01
2.842333616635e+01
2.851399188100e+01
2.868074111944e+01
2.836794665164e+01
2.832683483811e+01
2.838753964611e+01
2.838648502201e+01
2.832933465915e+01
2.836399603416e+01
2.848439120181e+01
2.840915366507e+01
2.848289288872e+01
2.840314072153e+01
2.847752600414e+01
2.841053303512e+01
2.847895207113e+01
2.840665587676e+01
3.658429279160e+01
2.870657236060e+01
2.870841261718e+01
2.871043786081e+01
2.870419572098e+01
2.890830439938e+01
2.890470752705e+01
2.891104302020e+01
2.889088715346e+01
2.866434512531e+01
2.870632505341e+01
2.881078077258e+01
2.881265875360e+01
2.870519541751e+01
2.866129248922e+01
2.862733250391e+01
2.858763174508e+01
2.863995776968e+01
2.866565211373e+01
2.870626521084e+01
2.881100426251e+01
2.862929342423e+01
2.858684378912e+01
2.864033822192e+01
2.866704580347e+01
2.870703715647e+01
2.880939959469e+01
2.862958523027e+01
2.858591688537e+01
2.864229281341e+01
2.864177349728e+01
2.858743253441e+01
2.862715652808e+01
2.867439794725e+01
2.864419416427e+01
2.867404581980e+01
2.863936341174e+01
2.867155696922e+01
2.864498272099e+01
2.867212496123e+01
2.864295602243e+01
2.769408191438e+01
2.894565774045e+01
2.894678184375e+01
2.894737512338e+01
2.894529389449e+01
2.892110797627e+01
2.892445577161e+01
2.892992197400e+01
2.891636361277e+01
2.890666444354e+01
2.890315194809e+01
2.894577500278e+01
2.894683697108e+01
2.890295004462e+01
2.890454492837e+01
2.888681657086e+01
2.884664498631e+01
2.889250479404e+01
2.890756977874e+01
2.890282018635e+01
2.894604680744e+01
2.888780390539e+01
2.884636489266e+01
2.889299145344e+01
2.890912269088e+01
2.890216316378e+01
2.894413713976e+01
2.888823765424e+01
2.884592343701e+01
2.889346683792e+01
2.889335080737e+01
2.884660960872e+01
2.888680920567e+01
2.887574413669e+01
2.888168981086e+01
2.887558172406e+01
2.887823270691e+01
2.887387822194e+01
2.888203336586e+01
2.887453740094e+01
2.888157204752e+01
2.915561919907e+01
2.916706683855e+01
2.916776266343e+01
2.916821036893e+01
2.916706890014e+01
2.911956186215e+01
2.911942082110e+01
2.911856475485e+01
2.912080471094e+01
2.913606717683e+01
2.910643451818e+01
2.910139893852e+01
2.910084447541e+01
2.910695297466e+01
2.913504039568e+01
2.912732664146e+01
2.909314593149e+01
2.912758184111e+01
2.913659121654e+01
2.910624544605e+01
2.910118606726e+01
2.912776787949e+01
2.909300911921e+01
2.912812578586e+01
2.913763353771e+01
2.910502498357e+01
2.910117142758e+01
2.912813326194e+01
2.909276332382e+01
2.912798663815e+01
2.912802646015e+01
2.909308516203e+01
2.912730379991e+01
2.908767968077e+01
2.911250768834e+01
2.908780084160e+01
2.911024178613e+01
2.908685425107e+01
2.911232337208e+01
2.908732573014e+01
2.911280744140e+01
2.907811809650e+01
2.936215567453e+01
2.936257406704e+01
2.936290598445e+01
2.936224448882e+01
2.927211938382e+01
2.927179413847e+01
2.927131135625e+01
2.927225158985e+01
2.934006339468e+01
2.930651834121e+01
2.927976843692e+01
2.927892961754e+01
2.930734803228e+01
2.933957732430e+01
2.933689623939e+01
2.931172414407e+01
2.933519284995e+01
2.934034778789e+01
2.930645194305e+01
2.927952898247e+01
2.933707659101e+01
2.931165231264e+01
2.933565981039e+01
2.934106186094e+01
2.930510872698e+01
2.927981378188e+01
2.933733861433e+01
2.931151778219e+01
2.933533252883e+01
2.933541114606e+01
2.931165250358e+01
2.933686086987e+01
2.929558539377e+01
2.932170862812e+01
2.929579851478e+01
2.932033410578e+01
2.929532531066e+01
2.932134928077e+01
2.929563823485e+01
2.932208018854e+01
2.927445032575e+01
2.984684002626e+01
2.984687337823e+01
2.984687440772e+01
2.984681350290e+01
2.983976765421e+01
2.983971635665e+01
2.983957052591e+01
2.983992275878e+01
2.984569817196e+01
2.984325781219e+01
2.984054014229e+01
2.984044797362e+01
2.984331370221e+01
2.984566200369e+01
2.984568846436e+01
2.984434083771e+01
2.984551141357e+01
2.984571850422e+01
2.984326158988e+01
2.984052801409e+01
2.984571663827e+01
2.984435473724e+01
2.984555055598e+01
2.984573227830e+01