# vtk DataFile Version 3.0
Unstructured Grid from OpenGeoSys
ASCII
DATASET UNSTRUCTURED_GRID
FIELD TimesAndCycles 2
TIME 1 1 double
3.600000000000e+03
CYLCE 1 1 long
1
POINTS 1394 double
0.000000000000e+00 0.000000000000e+00 0.000000000000e+00
5.000000000000e+00 0.000000000000e+00 0.000000000000e+00
5.000000000000e+00 5.000000000000e+00 0.000000000000e+00
0.000000000000e+00 5.000000000000e+00 0.000000000000e+00
2.244234909000e+00 2.244234909000e+00 0.000000000000e+00
2.755765091000e+00 2.244234909000e+00 0.000000000000e+00
2.755765091000e+00 2.755765091000e+00 0.000000000000e+00
2.244234909000e+00 2.755765091000e+00 0.000000000000e+00
7.141316008320e-01 7.141316008320e-01 0.000000000000e+00
1.314642334730e+00 1.314642334730e+00 0.000000000000e+00
1.819609643610e+00 1.819609643610e+00 0.000000000000e+00
1.819609643610e+00 3.180390356390e+00 0.000000000000e+00
1.314642334740e+00 3.685357665260e+00 0.000000000000e+00
7.141316008360e-01 4.285868399160e+00 0.000000000000e+00
0.000000000000e+00 3.750000000000e+00 0.000000000000e+00
0.000000000000e+00 2.500000000000e+00 0.000000000000e+00
0.000000000000e+00 1.250000000000e+00 0.000000000000e+00
4.285868399170e+00 7.141316008320e-01 0.000000000000e+00
3.685357665270e+00 1.314642334730e+00 0.000000000000e+00
3.180390356390e+00 1.819609643610e+00 0.000000000000e+00
1.250000000000e+00 0.000000000000e+00 0.000000000000e+00
2.500000000000e+00 0.000000000000e+00 0.000000000000e+00
3.750000000000e+00 0.000000000000e+00 0.000000000000e+00
4.285868399170e+00 4.285868399170e+00 0.000000000000e+00
3.685357665270e+00 3.685357665270e+00 0.000000000000e+00
3.180390356390e+00 3.180390356390e+00 0.000000000000e+00
5.000000000000e+00 1.250000000000e+00 0.000000000000e+00
5.000000000000e+00 2.500000000000e+00 0.000000000000e+00
5.000000000000e+00 3.750000000000e+00 0.000000000000e+00
3.750000000000e+00 5.000000000000e+00 0.000000000000e+00
2.500000000000e+00 5.000000000000e+00 0.000000000000e+00
1.250000000000e+00 5.000000000000e+00 0.000000000000e+00
9.560744151940e-01 2.677827143250e+00 0.000000000000e+00
6.659597640160e-01 1.438876720610e+00 0.000000000000e+00
2.309219871940e+00 9.522638293400e-01 0.000000000000e+00
3.458157207860e+00 6.354750772000e-01 0.000000000000e+00
4.043925584810e+00 2.322172856750e+00 0.000000000000e+00
4.334040235980e+00 3.561123279390e+00 0.000000000000e+00
2.318530875810e+00 4.048536535600e+00 0.000000000000e+00
3.552396921680e+00 4.370927842320e+00 0.000000000000e+00
2.500000000000e+00 2.500000000000e+00 0.000000000000e+00
0.000000000000e+00 0.000000000000e+00 -5.000000000000e-01
5.000000000000e+00 0.000000000000e+00 -5.000000000000e-01
5.000000000000e+00 5.000000000000e+00 -5.000000000000e-01
0.000000000000e+00 5.000000000000e+00 -5.000000000000e-01
2.244234909000e+00 2.244234909000e+00 -5.000000000000e-01
2.755765091000e+00 2.244234909000e+00 -5.000000000000e-01
2.755765091000e+00 2.755765091000e+00 -5.000000000000e-01
2.244234909000e+00 2.755765091000e+00 -5.000000000000e-01
7.141316008320e-01 7.141316008320e-01 -5.000000000000e-01
1.314642334730e+00 1.314642334730e+00 -5.000000000000e-01
1.819609643610e+00 1.819609643610e+00 -5.000000000000e-01
1.819609643610e+00 3.180390356390e+00 -5.000000000000e-01
1.314642334740e+00 3.685357665260e+00 -5.000000000000e-01
7.141316008360e-01 4.285868399160e+00 -5.000000000000e-01
0.000000000000e+00 3.750000000000e+00 -5.000000000000e-01
0.000000000000e+00 2.500000000000e+00 -5.000000000000e-01
0.000000000000e+00 1.250000000000e+00 -5.000000000000e-01
4.285868399170e+00 7.141316008320e-01 -5.000000000000e-01
3.685357665270e+00 1.314642334730e+00 -5.000000000000e-01
3.180390356390e+00 1.819609643610e+00 -5.000000000000e-01
1.250000000000e+00 0.000000000000e+00 -5.000000000000e-01
2.500000000000e+00 0.000000000000e+00 -5.000000000000e-01
3.750000000000e+00 0.000000000000e+00 -5.000000000000e-01
4.285868399170e+00 4.285868399170e+00 -5.000000000000e-01
3.685357665270e+00 3.685357665270e+00 -5.000000000000e-01
3.180390356390e+00 3.180390356390e+00 -5.000000000000e-01
5.000000000000e+00 1.250000000000e+00 -5.000000000000e-01
5.000000000000e+00 2.500000000000e+00 -5.000000000000e-01
5.000000000000e+00 3.750000000000e+00 -5.000000000000e-01
3.750000000000e+00 5.000000000000e+00 -5.000000000000e-01
2.500000000000e+00 5.000000000000e+00 -5.000000000000e-01
1.250000000000e+00 5.000000000000e+00 -5.000000000000e-01
9.560744151940e-01 2.677827143250e+00 -5.000000000000e-01
6.659597640160e-01 1.438876720610e+00 -5.000000000000e-01
2.309219871940e+00 9.522638293400e-01 -5.000000000000e-01
3.458157207860e+00 6.354750772000e-01 -5.000000000000e-01
4.043925584810e+00 2.322172856750e+00 -5.000000000000e-01
4.334040235980e+00 3.561123279390e+00 -5.000000000000e-01
2.318530875810e+00 4.048536535600e+00 -5.000000000000e-01
3.552396921680e+00 4.370927842320e+00 -5.000000000000e-01
2.500000000000e+00 2.500000000000e+00 -5.000000000000e-01
0.000000000000e+00 0.000000000000e+00 -1.000000000000e+00
5.000000000000e+00 0.000000000000e+00 -1.000000000000e+00
5.000000000000e+00 5.000000000000e+00 -1.000000000000e+00
0.000000000000e+00 5.000000000000e+00 -1.000000000000e+00
2.244234909000e+00 2.244234909000e+00 -1.000000000000e+00
2.755765091000e+00 2.244234909000e+00 -1.000000000000e+00
2.755765091000e+00 2.755765091000e+00 -1.000000000000e+00
2.244234909000e+00 2.755765091000e+00 -1.000000000000e+00
7.141316008320e-01 7.141316008320e-01 -1.000000000000e+00
1.314642334730e+00 1.314642334730e+00 -1.000000000000e+00
1.819609643610e+00 1.819609643610e+00 -1.000000000000e+00
1.819609643610e+00 3.180390356390e+00 -1.000000000000e+00
1.314642334740e+00 3.685357665260e+00 -1.000000000000e+00
7.141316008360e-01 4.285868399160e+00 -1.000000000000e+00
0.000000000000e+00 3.750000000000e+00 -1.000000000000e+00
0.000000000000e+00 2.500000000000e+00 -1.000000000000e+00
0.000000000000e+00 1.250000000000e+00 -1.000000000000e+00
4.285868399170e+00 7.141316008320e-01 -1.000000000000e+00
3.685357665270e+00 1.314642334730e+00 -1.000000000000e+00
3.180390356390e+00 1.819609643610e+00 -1.000000000000e+00
1.250000000000e+00 0.000000000000e+00 -1.000000000000e+00
2.500000000000e+00 0.000000000000e+00 -1.000000000000e+00
3.750000000000e+00 0.000000000000e+00 -1.000000000000e+00
4.285868399170e+00 4.285868399170e+00 -1.000000000000e+00
3.685357665270e+00 3.685357665270e+00 -1.000000000000e+00
3.180390356390e+00 3.180390356390e+00 -1.000000000000e+00
5.000000000000e+00 1.250000000000e+00 -1.000000000000e+00
5.000000000000e+00 2.500000000000e+00 -1.000000000000e+00
5.000000000000e+00 3.750000000000e+00 -1.000000000000e+00
3.750000000000e+00 5.000000000000e+00 -1.000000000000e+00
2.500000000000e+00 5.000000000000e+00 -1.000000000000e+00
1.250000000000e+00 5.000000000000e+00 -1.000000000000e+00
9.560744151940e-01 2.677827143250e+00 -1.000000000000e+00
6.659597640160e-01 1.438876720610e+00 -1.000000000000e+00
2.309219871940e+00 9.522638293400e-01 -1.000000000000e+00
3.458157207860e+00 6.354750772000e-01 -1.000000000000e+00
4.043925584810e+00 2.322172856750e+00 -1.000000000000e+00
4.334040235980e+00 3.561123279390e+00 -1.000000000000e+00
2.318530875810e+00 4.048536535600e+00 -1.000000000000e+00
3.552396921680e+00 4.370927842320e+00 -1.000000000000e+00
2.500000000000e+00 2.500000000000e+00 -1.000000000000e+00
0.000000000000e+00 0.000000000000e+00 -3.000000000000e+00
5.000000000000e+00 0.000000000000e+00 -3.000000000000e+00
5.000000000000e+00 5.000000000000e+00 -3.000000000000e+00
0.000000000000e+00 5.000000000000e+00 -3.000000000000e+00
2.244234909000e+00 2.244234909000e+00 -3.000000000000e+00
2.755765091000e+00 2.244234909000e+00 -3.000000000000e+00
2.755765091000e+00 2.755765091000e+00 -3.000000000000e+00
2.244234909000e+00 2.755765091000e+00 -3.000000000000e+00
7.141316008320e-01 7.141316008320e-01 -3.000000000000e+00
1.314642334730e+00 1.314642334730e+00 -3.000000000000e+00
1.819609643610e+00 1.819609643610e+00 -3.000000000000e+00
1.819609643610e+00 3.180390356390e+00 -3.000000000000e+00
1.314642334740e+00 3.685357665260e+00 -3.000000000000e+00
7.141316008360e-01 4.285868399160e+00 -3.000000000000e+00
0.000000000000e+00 3.750000000000e+00 -3.000000000000e+00
0.000000000000e+00 2.500000000000e+00 -3.000000000000e+00
0.000000000000e+00 1.250000000000e+00 -3.000000000000e+00
4.285868399170e+00 7.141316008320e-01 -3.000000000000e+00
3.685357665270e+00 1.314642334730e+00 -3.000000000000e+00
3.180390356390e+00 1.819609643610e+00 -3.000000000000e+00
1.250000000000e+00 0.000000000000e+00 -3.000000000000e+00
2.500000000000e+00 0.000000000000e+00 -3.000000000000e+00
3.750000000000e+00 0.000000000000e+00 -3.000000000000e+00
4.285868399170e+00 4.285868399170e+00 -3.000000000000e+00
3.685357665270e+00 3.685357665270e+00 -3.000000000000e+00
3.180390356390e+00 3.180390356390e+00 -3.000000000000e+00
5.000000000000e+00 1.250000000000e+00 -3.000000000000e+00
5.000000000000e+00 2.500000000000e+00 -3.000000000000e+00
5.000000000000e+00 3.750000000000e+00 -3.000000000000e+00
3.750000000000e+00 5.000000000000e+00 -3.000000000000e+00
2.500000000000e+00 5.000000000000e+00 -3.000000000000e+00
1.250000000000e+00 5.000000000000e+00 -3.000000000000e+00
9.560744151940e-01 2.677827143250e+00 -3.000000000000e+00
6.659597640160e-01 1.438876720610e+00 -3.000000000000e+00
2.309219871940e+00 9.522638293400e-01 -3.000000000000e+00
3.458157207860e+00 6.354750772000e-01 -3.000000000000e+00
4.043925584810e+00 2.322172856750e+00 -3.000000000000e+00
4.334040235980e+00 3.561123279390e+00 -3.000000000000e+00
2.318530875810e+00 4.048536535600e+00 -3.000000000000e+00
3.552396921680e+00 4.370927842320e+00 -3.000000000000e+00
2.500000000000e+00 2.500000000000e+00 -3.000000000000e+00
0.000000000000e+00 0.000000000000e+00 -5.000000000000e+00
5.000000000000e+00 0.000000000000e+00 -5.000000000000e+00
5.000000000000e+00 5.000000000000e+00 -5.000000000000e+00
0.000000000000e+00 5.000000000000e+00 -5.000000000000e+00
2.244234909000e+00 2.244234909000e+00 -5.000000000000e+00
[...]
POINT_DATA 1394
SCALARS TEMPERATURE1 double 1
LOOKUP_TABLE default
1.000000000000e+01
1.000000000000e+01
1.000000000000e+01
1.000000000000e+01
1.000000000000e+01
1.000000000000e+01
1.000000000000e+01
1.000000000000e+01
1.000000000000e+01
1.000000000000e+01
1.000000000000e+01
1.000000000000e+01
1.000000000000e+01
1.000000000000e+01
1.000000000000e+01
1.000000000000e+01
1.000000000000e+01
1.000000000000e+01
1.000000000000e+01
1.000000000000e+01
1.000000000000e+01
1.000000000000e+01
1.000000000000e+01
1.000000000000e+01
1.000000000000e+01
1.000000000000e+01
1.000000000000e+01
1.000000000000e+01
1.000000000000e+01
1.000000000000e+01
1.000000000000e+01
1.000000000000e+01
1.000000000000e+01
1.000000000000e+01
1.000000000000e+01
1.000000000000e+01
1.000000000000e+01
1.000000000000e+01
1.000000000000e+01
1.000000000000e+01
1.000000000000e+01
1.929760938543e+01
1.929728724788e+01
1.929487358057e+01
1.930082251156e+01
1.952761568856e+01
1.953819105251e+01
1.952050587794e+01
1.957538836745e+01
1.928636863466e+01
1.933195972017e+01
1.944154318195e+01
1.944192659106e+01
1.933012575370e+01
1.928441107024e+01
1.927501393598e+01
1.926808671207e+01
1.928521363007e+01
1.928682429340e+01
1.933138326202e+01
1.944268485306e+01
1.927477556988e+01
1.926816527699e+01
1.928482447384e+01
1.928869229474e+01
1.933290794718e+01
1.944386251839e+01
1.927524819241e+01
1.926860013260e+01
1.928518027104e+01
1.928503625148e+01
1.926868874993e+01
1.927567027124e+01
1.931290793549e+01
1.928520554688e+01
1.931162784447e+01
1.928367489920e+01
1.930982586005e+01
1.928688134737e+01
1.931086496328e+01
1.928543908684e+01
1.939629654414e+01
2.825460841981e+01
2.825527406033e+01
2.826302612258e+01
2.824731170103e+01
2.528110772005e+01
2.529659755609e+01
2.542715114770e+01
2.507502507543e+01
2.827676939856e+01
2.821772585051e+01
2.761626159913e+01
2.762288552608e+01
2.823373621331e+01
2.827711876167e+01
2.828222248234e+01
2.831392717844e+01
2.827458664034e+01
2.827603891176e+01
2.821984208600e+01
2.763036129132e+01
2.828340031089e+01
2.831214707848e+01
2.827454182530e+01
2.828022900721e+01
2.820572794568e+01
2.761940612413e+01
2.828230971298e+01
2.831233726478e+01
2.827655950258e+01
2.827658552694e+01
2.831357005379e+01
2.828122520009e+01
2.833320612888e+01
2.829334682532e+01
2.833339796218e+01
2.829672758725e+01
2.833495999722e+01
2.829058130589e+01
2.833600916822e+01
2.829206344637e+01
2.391080123024e+01
3.317723215248e+01
3.317730932995e+01
3.318718342119e+01
3.317014387132e+01
2.987070284764e+01
2.988442503067e+01
2.994145939248e+01
2.978748867363e+01
3.318310739469e+01
3.294271527761e+01
3.201431144242e+01
3.200347998951e+01
3.296746387263e+01
3.318637673973e+01
3.322264581175e+01
3.322491739709e+01
3.318967698761e+01
3.318167877943e+01
3.294601505149e+01
3.202658656824e+01
3.322259350068e+01
3.322328970499e+01
3.319074128273e+01
3.318597903024e+01
3.292334174086e+01
3.203560083639e+01
3.322195643636e+01
3.322403155379e+01
3.319003183902e+01
3.319092122213e+01
3.322436671225e+01
3.322166702850e+01
3.308450916558e+01
3.316620054751e+01
3.308544571924e+01
3.317150398499e+01
3.308779883753e+01
3.316090467391e+01
3.308984220486e+01
3.316760034669e+01
2.705788281687e+01
3.661251043519e+01
3.661219207708e+01
3.662088032312e+01
3.660833365893e+01
3.358264517993e+01
3.359145626398e+01
3.361045974518e+01
3.355842792201e+01
3.658849554350e+01
3.625590798805e+01
3.529805296424e+01
3.528118667462e+01
3.628107947938e+01
3.659269415712e+01
3.664040000566e+01
3.660320990336e+01
3.659704726033e+01
3.658697623713e+01
3.625896194019e+01
3.530685566042e+01
3.663920310746e+01
3.660184480184e+01
3.659890081880e+01
3.659147759125e+01
3.623524147239e+01
3.532244375281e+01
3.663912022896e+01
3.660285308989e+01
3.659635327575e+01
3.659761646681e+01
3.660269022874e+01
3.663965236932e+01
3.637440479258e+01
3.653893552114e+01
3.637587041668e+01
3.654322944404e+01
3.637827835162e+01
3.653290870277e+01
3.638068758949e+01
3.654218566952e+01
2.996783238434e+01
3.877929711945e+01
3.877856508216e+01
3.878598779038e+01
3.877701811938e+01
3.635114545606e+01
3.635549748492e+01
3.633478741714e+01
3.638962440251e+01
3.874899012842e+01
3.839090517145e+01
3.750631173124e+01
3.748520811040e+01
3.841400648862e+01
3.875412494065e+01
3.880854266446e+01
3.875962542520e+01
3.876080497978e+01
3.874735642787e+01
3.839361115458e+01
3.751130558581e+01
3.880657897099e+01
3.875864003973e+01
3.876282220735e+01
3.875082226049e+01
3.837177124835e+01
3.753231195709e+01
3.880674319214e+01
3.875977230869e+01
3.875929410917e+01
3.876076098460e+01
3.875917308080e+01
3.880800080690e+01
3.848836852167e+01
3.868963149528e+01
3.849000729353e+01
3.869369041141e+01
3.849257164358e+01
3.868370258281e+01
3.849484416080e+01
3.869382043258e+01
3.249797539944e+01
3.992926419379e+01
3.992832733765e+01
3.993450743479e+01
3.992860442988e+01
3.844162463979e+01
3.843951257160e+01
3.836054318660e+01
3.857269415410e+01
3.989259794447e+01
3.953319808079e+01
3.879025629543e+01
3.876363725052e+01
3.955289423080e+01
3.989833534035e+01
3.995425084675e+01
3.989393014308e+01
3.990539021615e+01
3.989107652255e+01
3.953540210521e+01
3.879074277706e+01
3.995183304952e+01
3.989340266548e+01
3.990741946836e+01
3.989315174468e+01
3.951676822531e+01
3.881971915391e+01
3.995232074934e+01
3.989455047025e+01
3.990325296448e+01
3.990489475918e+01
3.989362092581e+01
3.995399456615e+01
3.960038406332e+01
3.982568472753e+01
3.960187590512e+01
3.982895519771e+01
3.960400669008e+01
3.982036114415e+01
3.960621362146e+01
3.983058724545e+01
3.436457614953e+01
4.040109446292e+01
4.040055430617e+01
4.040924832783e+01
4.039904436698e+01
3.693287795197e+01
3.694006125255e+01
3.694311563913e+01
3.693298640151e+01
4.033559776271e+01
3.985991760876e+01
3.870318869582e+01
3.867984640760e+01
3.988984110645e+01
4.034050887459e+01
4.040267300108e+01
4.031405115064e+01
4.034432642898e+01
4.033393977174e+01
3.986328721127e+01
3.871105410518e+01
4.040048269313e+01
4.031263056420e+01
4.034744016858e+01
4.034001858581e+01
3.983406616740e+01
3.873243080760e+01
4.040097876497e+01
4.031394434087e+01
4.034276817009e+01
4.034442623890e+01
4.031338729002e+01
4.040198893497e+01
3.997406879205e+01
4.024194300272e+01
3.997641529081e+01
4.024533702651e+01
3.997897443762e+01
4.023416575508e+01
3.998215458866e+01
4.024726603864e+01
3.264185058407e+01
4.116492477098e+01
4.116393558661e+01
4.117073652544e+01
4.116422551439e+01
3.896988672799e+01
3.897036312268e+01
3.891748346558e+01
3.905858554887e+01
4.111767444580e+01
4.070356112643e+01
3.979774837119e+01
3.977154618043e+01
4.072711310770e+01
4.112340893502e+01
4.118490144272e+01
4.111331693720e+01
4.113065214226e+01
4.111599098654e+01
4.070622343607e+01
3.980048745274e+01
4.118231246057e+01
4.111251320485e+01
4.113315064465e+01
4.111941194648e+01
4.068359707626e+01
3.982751472045e+01
4.118282167444e+01
4.111379765079e+01
4.112849150228e+01
4.113016403144e+01
4.111286232292e+01
4.118451805972e+01
4.078830884535e+01
4.103930083723e+01
4.079023868187e+01
4.104286869286e+01
4.079273268911e+01
4.103293824231e+01
4.079524548198e+01
4.104459487119e+01
3.476016347916e+01
4.119594737403e+01
4.119470571651e+01
4.120065323363e+01
4.119539609175e+01
3.957312372855e+01
3.957008543152e+01
3.950517944940e+01
3.967825453690e+01
4.116844071961e+01
4.080950345567e+01
4.004387736740e+01
4.001887397558e+01
4.082929651201e+01
4.117461509946e+01
4.123433003985e+01
4.118429173624e+01
4.118425494936e+01
4.116665602589e+01
4.081182314020e+01
4.004467651752e+01
4.123165424981e+01
4.118372612906e+01
4.118621277121e+01
4.116848692722e+01
4.079330539344e+01
4.007140754550e+01
4.123195343209e+01
4.118494618403e+01
4.118199408472e+01
4.118356283851e+01
4.118391434757e+01
4.123401023141e+01
4.088571211818e+01
4.110793428436e+01
4.088742587772e+01
4.111207552273e+01
4.089020595309e+01
4.110241643780e+01
4.089209813906e+01
4.111273909979e+01
3.594487651038e+01
4.099283049649e+01
4.099154638564e+01
4.099710849944e+01
4.099221788325e+01
3.964951291063e+01
3.964498214399e+01
3.957659644925e+01
3.975888750141e+01
4.097465796432e+01
4.064940818283e+01
3.996140536517e+01
3.993750899079e+01
4.066718254918e+01
4.098085600477e+01
4.103790828010e+01
4.099863174491e+01
4.099100354338e+01
4.097288478825e+01
4.065153663311e+01
3.996144000586e+01
4.103530530091e+01
4.099816205036e+01
4.099266939474e+01
4.097400017646e+01
4.063518560018e+01
3.998745609293e+01
4.103549824523e+01
4.099931217595e+01
4.098880469972e+01
4.099029053967e+01
4.099829620289e+01
4.103761338320e+01
4.072061110251e+01
4.092361685281e+01
4.072216955477e+01
4.092788485260e+01
4.072497866686e+01
4.091860033377e+01
4.072657405728e+01
4.092805756714e+01
3.638101083529e+01
4.075090347497e+01
4.074962242663e+01
4.075495928726e+01
4.075017230701e+01
3.954202622436e+01
3.953708104466e+01
3.947062557373e+01
3.964766858042e+01
4.073900037559e+01
4.043858640255e+01
3.979880139405e+01
3.977618826795e+01
4.045510377721e+01
4.074510174466e+01
4.079970717202e+01
4.076811078314e+01
4.075540793134e+01
4.073725067569e+01
4.044059615482e+01
3.979863111461e+01
4.079720479416e+01
4.076767844670e+01
4.075686970017e+01
4.073800396615e+01
4.042559092080e+01
3.982344607687e+01
4.079731324593e+01
4.076877349093e+01
4.075331170301e+01
4.075472204503e+01
4.076780166871e+01
4.079941666107e+01
4.050750945171e+01
4.069479907560e+01
4.050895306219e+01
4.069912893168e+01
4.051176391652e+01
4.069012286894e+01
4.051317015407e+01
4.069892512955e+01
3.653328551236e+01
4.051906279949e+01
4.051782174094e+01
4.052305866661e+01
4.051820417931e+01
3.934345906592e+01
3.933880252221e+01
3.927690077405e+01
3.944172074961e+01
4.051024709971e+01
4.022572394697e+01
3.961075552870e+01
3.958931805077e+01
4.024160320660e+01
4.051617372565e+01
4.056865077024e+01
4.054129794732e+01
4.052629681700e+01
4.050853485202e+01
4.022766943957e+01
3.961072677551e+01
4.056625839958e+01
4.054086323070e+01
4.052764159300e+01
4.050920081110e+01
4.021333172208e+01
3.963426180301e+01
4.056631491479e+01
4.054191667130e+01
4.052431785002e+01
4.052566844035e+01
4.054100369482e+01
4.056835413488e+01
4.029388221967e+01
4.047002104627e+01
4.029524763393e+01
4.047432517078e+01
4.029802119196e+01
4.046554664786e+01
4.029933849883e+01
4.047391115367e+01
3.649319121308e+01
4.028542491112e+01
4.028426390505e+01
4.028954616280e+01
4.028440727434e+01
3.902542917636e+01
3.902183874837e+01
3.896816056505e+01
3.911094018151e+01
4.027654423567e+01
3.999876688418e+01
3.938262001659e+01
3.936234915089e+01
4.001468618023e+01
4.028220975884e+01
4.033286907709e+01
4.030642048162e+01
4.029179585699e+01
4.027488102084e+01
4.000071066615e+01
3.938315236215e+01
4.033060141009e+01
4.030593528341e+01
4.029311282260e+01
4.027575991549e+01
3.998630514187e+01
3.940518385849e+01
4.033063356685e+01
4.030696048566e+01
4.028995890828e+01
4.029126277978e+01
4.030612661810e+01
4.033255062168e+01
4.006815361132e+01
4.023747892211e+01
4.006948284171e+01
4.024167991692e+01
4.007218953356e+01
4.023305407428e+01
4.007351884457e+01
4.024120239853e+01
3.624439086396e+01
3.995809304120e+01
3.995710121067e+01
3.996271082404e+01
3.995679044028e+01
3.840911822290e+01
3.840815927218e+01
3.836888615608e+01
3.847321442678e+01
3.994410700615e+01
3.966001769227e+01
3.899894234254e+01
3.897982485565e+01
3.967716467654e+01
3.994929629138e+01
3.999813961759e+01
3.996752819609e+01
3.995760795245e+01
3.994253095144e+01
3.966207783844e+01
3.900087605813e+01
3.999606853611e+01
3.996690286417e+01
3.995903127596e+01
3.994416606622e+01
3.964632671021e+01
3.902108242200e+01
3.999612219050e+01
3.996791721830e+01
3.995599093961e+01
3.995725969028e+01
3.996721520887e+01
3.999777564335e+01
3.973449870813e+01
3.990201306952e+01
3.973582570692e+01
3.990596872482e+01
3.973835933120e+01
3.989741318074e+01
3.973989420018e+01
3.990564261545e+01
3.550732318991e+01
3.931640473697e+01
3.931588722244e+01
3.932287685484e+01
3.931401851607e+01
3.689620013495e+01
3.689958681227e+01
3.690204346760e+01
3.689338429868e+01
3.928629711648e+01
3.896448731698e+01
3.814297945311e+01
3.812649919995e+01
3.898576737717e+01
3.929062322390e+01
3.933706859422e+01
3.929138600571e+01
3.929498283222e+01
3.928485668877e+01
3.896697915817e+01
3.814855206734e+01
3.933544062546e+01
3.929029663345e+01
3.929685804929e+01
3.928845721226e+01
3.894684627439e+01
3.816405606885e+01
3.933551156006e+01
3.929125329886e+01
3.929395588326e+01
3.929517800976e+01
3.929092015037e+01
3.933648032477e+01
3.905588267048e+01
3.923205374479e+01
3.905747791113e+01
3.923546816882e+01
3.905986482749e+01
3.922655006328e+01
3.906188336003e+01
3.923558299830e+01
3.415775079283e+01
3.906130799032e+01
3.906090368952e+01
3.906816506565e+01
3.905875180087e+01
3.646018204814e+01
3.646547492355e+01
3.647229368348e+01
3.645239062820e+01
3.902646705839e+01
3.869557626934e+01
3.783654178224e+01
3.781991179281e+01
3.871795847333e+01
3.903048620058e+01
3.907619486598e+01
3.902603178209e+01
3.903396165252e+01
3.902509783911e+01
3.869818128717e+01
3.784299296932e+01
3.907469571618e+01
3.902486296637e+01
3.903594375133e+01
3.902924258455e+01
3.867684906053e+01
3.785845342158e+01
3.907482243698e+01
3.902582923515e+01
3.903303799230e+01
3.903426204481e+01
3.902555942658e+01
3.907559777059e+01
3.879043090294e+01
3.896872432483e+01
3.879199896524e+01
3.897195589773e+01
3.879418194708e+01
3.896307453166e+01
3.879642093688e+01
3.897228144733e+01
3.343875226708e+01
3.862688400794e+01
3.862666010636e+01
3.863438645522e+01
3.862386314321e+01
3.574007711574e+01
3.574708681262e+01
3.576957643276e+01
3.570731854297e+01
3.858796572729e+01
3.825005210645e+01
3.734470080788e+01
3.732933978011e+01
3.827363624202e+01
3.859164057560e+01
3.863581405862e+01
3.858233696667e+01
3.859371043033e+01
3.858665411571e+01
3.825278718976e+01
3.735243804270e+01
3.863451770765e+01
3.858101336916e+01
3.859580105459e+01
3.859141256202e+01
3.823018214095e+01
3.736588308909e+01
3.863462630000e+01
3.858194073620e+01
3.859302805538e+01
3.859421700546e+01
3.858181398662e+01
3.863513373380e+01
3.835065497707e+01
3.852771023324e+01
3.835228892867e+01
3.853077178999e+01
3.835441708650e+01
3.852182181199e+01
3.835678190334e+01
3.853114155860e+01
3.277618507274e+01
3.785118312541e+01
3.785109682300e+01
3.785937448718e+01
3.784730491732e+01
3.469474981051e+01
3.470368945456e+01
3.473934352682e+01
3.464180993851e+01
3.781584498132e+01
3.748561525741e+01
3.653602247500e+01
3.652167208904e+01
3.751043840385e+01
3.781914549627e+01
3.786144190110e+01
3.781392331523e+01
3.782072141169e+01
3.781456418313e+01
3.748858086905e+01
3.654550888088e+01
3.786048150981e+01
3.781246468591e+01
3.782276034359e+01
3.781975573359e+01
3.746480940957e+01
3.655768984260e+01
3.786049729521e+01
3.781336374088e+01
3.782032370192e+01
3.782143008675e+01
3.781336396797e+01
3.786068772905e+01
3.759766152338e+01
3.776007060376e+01
3.759921392097e+01
3.776340977361e+01
3.760124726408e+01
3.775408525454e+01
3.760370690241e+01
3.776313101075e+01
3.177010067245e+01
3.659509590612e+01
3.659502311451e+01
3.660340770709e+01
3.658976726634e+01
3.322004222544e+01
3.323189587018e+01
3.330760082032e+01
3.310163043593e+01
3.658553717967e+01
3.631530793116e+01
3.539653397880e+01
3.538857963574e+01
3.633890142438e+01
3.658865793029e+01
3.662747303793e+01
3.661177307259e+01
3.659231042625e+01
3.658410793337e+01
3.631830910309e+01
3.540780789402e+01
3.662695636839e+01
3.661026111196e+01
3.659381401070e+01
3.658869983294e+01
3.629610271749e+01
3.541203326768e+01
3.662648039386e+01
3.661100551339e+01
3.659230218369e+01
3.659315630035e+01
3.661112717096e+01
3.662650260810e+01
3.644308805183e+01
3.655468089683e+01
3.644462059526e+01
3.655926608225e+01
3.644732650567e+01
3.654903104414e+01
3.644909766979e+01
3.655654076473e+01
3.088606517106e+01
3.482518071061e+01
3.482489563158e+01
3.482816584299e+01
3.482284680027e+01
3.448118206048e+01
3.448048958697e+01
3.444899544819e+01
3.453426152004e+01
3.484281472160e+01
3.478433286228e+01
3.457472716476e+01
3.456594416885e+01
3.479042276191e+01
3.484511916238e+01
3.486064220130e+01
3.487506806259e+01
3.484878629857e+01
3.484217139500e+01
3.478525369887e+01
3.457579485271e+01
3.486032885094e+01
3.487482278147e+01
3.484872687041e+01
3.484180727604e+01
3.478041549642e+01
3.458680338878e+01
3.486007396282e+01
3.487513229914e+01
3.484849570017e+01
3.484896072078e+01
3.487502166016e+01
3.486046494451e+01
3.482345535315e+01
3.484738804215e+01
3.482342076676e+01
3.484986077777e+01
3.482428364076e+01
3.484620777454e+01
3.482476950230e+01
3.484805417055e+01
3.321450445316e+01
3.432434046836e+01
3.432416710616e+01
3.432618420351e+01
3.432270498781e+01
3.418451529270e+01
3.418102110656e+01
3.418196556580e+01
3.417759101044e+01
3.434232479465e+01
3.432673850188e+01
3.425058362700e+01
3.424918305422e+01
3.432868010384e+01
3.434414223890e+01
3.435233612026e+01
3.436872670881e+01
3.434624256353e+01
3.434180278448e+01
3.432705593040e+01
3.425061187926e+01
3.435203388829e+01
3.436850276459e+01
3.434601187520e+01
3.434098777164e+01
3.432613080222e+01
3.425230216201e+01
3.435164051921e+01
3.436858296306e+01
3.434625258060e+01
3.434648748594e+01
3.436865981874e+01
3.435208591763e+01
3.434717354912e+01
3.435166403732e+01
3.434735069046e+01
3.435325445496e+01
3.434852151600e+01
3.435103553591e+01
3.434830853568e+01
3.435174130752e+01
3.446753252262e+01
3.381525606425e+01
3.381508198161e+01
3.381597746037e+01
3.381456391339e+01
3.381802562518e+01
3.381791916324e+01
3.381558420949e+01
3.382194663907e+01
3.382988894138e+01
3.383965878372e+01
3.382682349632e+01
3.382634636814e+01
3.384017596022e+01
3.383076675447e+01
3.383392132500e+01
3.384899978659e+01
3.383269415210e+01
3.382960797729e+01
3.383976449017e+01
3.382693441844e+01
3.383373084187e+01
3.384888820398e+01
3.383235707254e+01
3.382916649589e+01
3.383995993880e+01
3.382794906686e+01
3.383349715561e+01
3.384899472014e+01
3.383273001276e+01
3.383283751993e+01
3.384906923797e+01
3.383386242216e+01
3.385053651804e+01
3.384027154308e+01
3.385036526683e+01
3.384122577629e+01
3.385086900119e+01
3.384028377919e+01
3.385081569463e+01
3.384020048107e+01
3.374166168249e+01
3.331028564413e+01
3.331014699223e+01
3.331056820054e+01
3.331002323040e+01
3.334771690970e+01
3.334771966121e+01
3.334827565049e+01
3.334692683422e+01
3.332072162669e+01
3.333655084523e+01
3.334722549809e+01
3.334765962490e+01
3.333642305590e+01
3.332118695812e+01
3.332186501868e+01
3.333328771453e+01
3.332236474822e+01
3.332055434730e+01
3.333654924162e+01
3.334732746975e+01
3.332171470204e+01
3.333318404447e+01
3.332206146709e+01
3.332032015157e+01
3.333720606233e+01
3.334727014579e+01
3.332154948770e+01
3.333326718246e+01
3.332246140208e+01
3.332249387535e+01
3.333337631361e+01
3.332185548334e+01
3.334199522594e+01
3.332926217222e+01
3.334179050162e+01
3.332977915807e+01
3.334206583071e+01
3.332944699977e+01
3.334203134912e+01
3.332913758336e+01
3.336504876544e+01
3.282264003522e+01
3.282252488207e+01
3.282275433257e+01
3.282261263496e+01
3.285703474628e+01
3.285722301187e+01
3.285756455333e+01
3.285686719138e+01
3.282908443836e+01
3.284140669833e+01
3.285319688852e+01
3.285359650805e+01
3.284124492246e+01
3.282935856254e+01
3.282932825518e+01
3.283660241802e+01
3.283001838172e+01
3.282897780649e+01
3.284138281072e+01
3.285326545500e+01
3.282918718712e+01
3.283650260768e+01
3.282979387423e+01
3.282890610648e+01
3.284194156411e+01
3.285316942795e+01
3.282908366791e+01
3.283657759546e+01
3.283011271381e+01
3.283012346196e+01
3.283668629716e+01
3.282934334096e+01
3.284424024046e+01
3.283471276492e+01
3.284405476416e+01
3.283497513682e+01
3.284419656601e+01
3.283490417115e+01
3.284421389434e+01
3.283464459200e+01
3.285620608624e+01
3.120915602698e+01
3.120910868170e+01
3.120916611988e+01
3.120928129617e+01
3.120961455061e+01
3.120960648859e+01
3.120962834161e+01
3.120961136013e+01
3.120942531648e+01
3.120962111127e+01
3.120966723033e+01
3.120971016827e+01
3.120966939715e+01
3.120951450858e+01
3.120962078295e+01
3.120990758207e+01
3.120955482160e+01
3.120939219162e+01
3.120960746062e+01
3.120965881442e+01
3.120952629813e+01
3.120985280392e+01
3.120951575991e+01
3.120946621066e+01