# vtk DataFile Version 3.0
Unstructured Grid from OpenGeoSys
ASCII
DATASET UNSTRUCTURED_GRID
FIELD TimesAndCycles 2
TIME 1 1 double
3.600000000000e+03
CYLCE 1 1 long
1
POINTS 1394 double
0.000000000000e+00 0.000000000000e+00 0.000000000000e+00
5.000000000000e+00 0.000000000000e+00 0.000000000000e+00
5.000000000000e+00 5.000000000000e+00 0.000000000000e+00
0.000000000000e+00 5.000000000000e+00 0.000000000000e+00
2.244234909000e+00 2.244234909000e+00 0.000000000000e+00
2.755765091000e+00 2.244234909000e+00 0.000000000000e+00
2.755765091000e+00 2.755765091000e+00 0.000000000000e+00
2.244234909000e+00 2.755765091000e+00 0.000000000000e+00
7.141316008320e-01 7.141316008320e-01 0.000000000000e+00
1.314642334730e+00 1.314642334730e+00 0.000000000000e+00
1.819609643610e+00 1.819609643610e+00 0.000000000000e+00
1.819609643610e+00 3.180390356390e+00 0.000000000000e+00
1.314642334740e+00 3.685357665260e+00 0.000000000000e+00
7.141316008360e-01 4.285868399160e+00 0.000000000000e+00
0.000000000000e+00 3.750000000000e+00 0.000000000000e+00
0.000000000000e+00 2.500000000000e+00 0.000000000000e+00
0.000000000000e+00 1.250000000000e+00 0.000000000000e+00
4.285868399170e+00 7.141316008320e-01 0.000000000000e+00
3.685357665270e+00 1.314642334730e+00 0.000000000000e+00
3.180390356390e+00 1.819609643610e+00 0.000000000000e+00
1.250000000000e+00 0.000000000000e+00 0.000000000000e+00
2.500000000000e+00 0.000000000000e+00 0.000000000000e+00
3.750000000000e+00 0.000000000000e+00 0.000000000000e+00
4.285868399170e+00 4.285868399170e+00 0.000000000000e+00
3.685357665270e+00 3.685357665270e+00 0.000000000000e+00
3.180390356390e+00 3.180390356390e+00 0.000000000000e+00
5.000000000000e+00 1.250000000000e+00 0.000000000000e+00
5.000000000000e+00 2.500000000000e+00 0.000000000000e+00
5.000000000000e+00 3.750000000000e+00 0.000000000000e+00
3.750000000000e+00 5.000000000000e+00 0.000000000000e+00
2.500000000000e+00 5.000000000000e+00 0.000000000000e+00
1.250000000000e+00 5.000000000000e+00 0.000000000000e+00
9.560744151940e-01 2.677827143250e+00 0.000000000000e+00
6.659597640160e-01 1.438876720610e+00 0.000000000000e+00
2.309219871940e+00 9.522638293400e-01 0.000000000000e+00
3.458157207860e+00 6.354750772000e-01 0.000000000000e+00
4.043925584810e+00 2.322172856750e+00 0.000000000000e+00
4.334040235980e+00 3.561123279390e+00 0.000000000000e+00
2.318530875810e+00 4.048536535600e+00 0.000000000000e+00
3.552396921680e+00 4.370927842320e+00 0.000000000000e+00
2.500000000000e+00 2.500000000000e+00 0.000000000000e+00
0.000000000000e+00 0.000000000000e+00 -5.000000000000e-01
5.000000000000e+00 0.000000000000e+00 -5.000000000000e-01
5.000000000000e+00 5.000000000000e+00 -5.000000000000e-01
0.000000000000e+00 5.000000000000e+00 -5.000000000000e-01
2.244234909000e+00 2.244234909000e+00 -5.000000000000e-01
2.755765091000e+00 2.244234909000e+00 -5.000000000000e-01
2.755765091000e+00 2.755765091000e+00 -5.000000000000e-01
2.244234909000e+00 2.755765091000e+00 -5.000000000000e-01
7.141316008320e-01 7.141316008320e-01 -5.000000000000e-01
1.314642334730e+00 1.314642334730e+00 -5.000000000000e-01
1.819609643610e+00 1.819609643610e+00 -5.000000000000e-01
1.819609643610e+00 3.180390356390e+00 -5.000000000000e-01
1.314642334740e+00 3.685357665260e+00 -5.000000000000e-01
7.141316008360e-01 4.285868399160e+00 -5.000000000000e-01
0.000000000000e+00 3.750000000000e+00 -5.000000000000e-01
0.000000000000e+00 2.500000000000e+00 -5.000000000000e-01
0.000000000000e+00 1.250000000000e+00 -5.000000000000e-01
4.285868399170e+00 7.141316008320e-01 -5.000000000000e-01
3.685357665270e+00 1.314642334730e+00 -5.000000000000e-01
3.180390356390e+00 1.819609643610e+00 -5.000000000000e-01
1.250000000000e+00 0.000000000000e+00 -5.000000000000e-01
2.500000000000e+00 0.000000000000e+00 -5.000000000000e-01
3.750000000000e+00 0.000000000000e+00 -5.000000000000e-01
4.285868399170e+00 4.285868399170e+00 -5.000000000000e-01
3.685357665270e+00 3.685357665270e+00 -5.000000000000e-01
3.180390356390e+00 3.180390356390e+00 -5.000000000000e-01
5.000000000000e+00 1.250000000000e+00 -5.000000000000e-01
5.000000000000e+00 2.500000000000e+00 -5.000000000000e-01
5.000000000000e+00 3.750000000000e+00 -5.000000000000e-01
3.750000000000e+00 5.000000000000e+00 -5.000000000000e-01
2.500000000000e+00 5.000000000000e+00 -5.000000000000e-01
1.250000000000e+00 5.000000000000e+00 -5.000000000000e-01
9.560744151940e-01 2.677827143250e+00 -5.000000000000e-01
6.659597640160e-01 1.438876720610e+00 -5.000000000000e-01
2.309219871940e+00 9.522638293400e-01 -5.000000000000e-01
3.458157207860e+00 6.354750772000e-01 -5.000000000000e-01
4.043925584810e+00 2.322172856750e+00 -5.000000000000e-01
4.334040235980e+00 3.561123279390e+00 -5.000000000000e-01
2.318530875810e+00 4.048536535600e+00 -5.000000000000e-01
3.552396921680e+00 4.370927842320e+00 -5.000000000000e-01
2.500000000000e+00 2.500000000000e+00 -5.000000000000e-01
0.000000000000e+00 0.000000000000e+00 -1.000000000000e+00
5.000000000000e+00 0.000000000000e+00 -1.000000000000e+00
5.000000000000e+00 5.000000000000e+00 -1.000000000000e+00
0.000000000000e+00 5.000000000000e+00 -1.000000000000e+00
2.244234909000e+00 2.244234909000e+00 -1.000000000000e+00
2.755765091000e+00 2.244234909000e+00 -1.000000000000e+00
2.755765091000e+00 2.755765091000e+00 -1.000000000000e+00
2.244234909000e+00 2.755765091000e+00 -1.000000000000e+00
7.141316008320e-01 7.141316008320e-01 -1.000000000000e+00
1.314642334730e+00 1.314642334730e+00 -1.000000000000e+00
1.819609643610e+00 1.819609643610e+00 -1.000000000000e+00
1.819609643610e+00 3.180390356390e+00 -1.000000000000e+00
1.314642334740e+00 3.685357665260e+00 -1.000000000000e+00
7.141316008360e-01 4.285868399160e+00 -1.000000000000e+00
0.000000000000e+00 3.750000000000e+00 -1.000000000000e+00
0.000000000000e+00 2.500000000000e+00 -1.000000000000e+00
0.000000000000e+00 1.250000000000e+00 -1.000000000000e+00
4.285868399170e+00 7.141316008320e-01 -1.000000000000e+00
3.685357665270e+00 1.314642334730e+00 -1.000000000000e+00
3.180390356390e+00 1.819609643610e+00 -1.000000000000e+00
1.250000000000e+00 0.000000000000e+00 -1.000000000000e+00
2.500000000000e+00 0.000000000000e+00 -1.000000000000e+00
3.750000000000e+00 0.000000000000e+00 -1.000000000000e+00
4.285868399170e+00 4.285868399170e+00 -1.000000000000e+00
3.685357665270e+00 3.685357665270e+00 -1.000000000000e+00
3.180390356390e+00 3.180390356390e+00 -1.000000000000e+00
5.000000000000e+00 1.250000000000e+00 -1.000000000000e+00
5.000000000000e+00 2.500000000000e+00 -1.000000000000e+00
5.000000000000e+00 3.750000000000e+00 -1.000000000000e+00
3.750000000000e+00 5.000000000000e+00 -1.000000000000e+00
2.500000000000e+00 5.000000000000e+00 -1.000000000000e+00
1.250000000000e+00 5.000000000000e+00 -1.000000000000e+00
9.560744151940e-01 2.677827143250e+00 -1.000000000000e+00
6.659597640160e-01 1.438876720610e+00 -1.000000000000e+00
2.309219871940e+00 9.522638293400e-01 -1.000000000000e+00
3.458157207860e+00 6.354750772000e-01 -1.000000000000e+00
4.043925584810e+00 2.322172856750e+00 -1.000000000000e+00
4.334040235980e+00 3.561123279390e+00 -1.000000000000e+00
2.318530875810e+00 4.048536535600e+00 -1.000000000000e+00
3.552396921680e+00 4.370927842320e+00 -1.000000000000e+00
2.500000000000e+00 2.500000000000e+00 -1.000000000000e+00
0.000000000000e+00 0.000000000000e+00 -3.000000000000e+00
5.000000000000e+00 0.000000000000e+00 -3.000000000000e+00
5.000000000000e+00 5.000000000000e+00 -3.000000000000e+00
0.000000000000e+00 5.000000000000e+00 -3.000000000000e+00
2.244234909000e+00 2.244234909000e+00 -3.000000000000e+00
2.755765091000e+00 2.244234909000e+00 -3.000000000000e+00
2.755765091000e+00 2.755765091000e+00 -3.000000000000e+00
2.244234909000e+00 2.755765091000e+00 -3.000000000000e+00
7.141316008320e-01 7.141316008320e-01 -3.000000000000e+00
1.314642334730e+00 1.314642334730e+00 -3.000000000000e+00
1.819609643610e+00 1.819609643610e+00 -3.000000000000e+00
1.819609643610e+00 3.180390356390e+00 -3.000000000000e+00
1.314642334740e+00 3.685357665260e+00 -3.000000000000e+00
7.141316008360e-01 4.285868399160e+00 -3.000000000000e+00
0.000000000000e+00 3.750000000000e+00 -3.000000000000e+00
0.000000000000e+00 2.500000000000e+00 -3.000000000000e+00
0.000000000000e+00 1.250000000000e+00 -3.000000000000e+00
4.285868399170e+00 7.141316008320e-01 -3.000000000000e+00
3.685357665270e+00 1.314642334730e+00 -3.000000000000e+00
3.180390356390e+00 1.819609643610e+00 -3.000000000000e+00
1.250000000000e+00 0.000000000000e+00 -3.000000000000e+00
2.500000000000e+00 0.000000000000e+00 -3.000000000000e+00
3.750000000000e+00 0.000000000000e+00 -3.000000000000e+00
4.285868399170e+00 4.285868399170e+00 -3.000000000000e+00
3.685357665270e+00 3.685357665270e+00 -3.000000000000e+00
3.180390356390e+00 3.180390356390e+00 -3.000000000000e+00
5.000000000000e+00 1.250000000000e+00 -3.000000000000e+00
5.000000000000e+00 2.500000000000e+00 -3.000000000000e+00
5.000000000000e+00 3.750000000000e+00 -3.000000000000e+00
3.750000000000e+00 5.000000000000e+00 -3.000000000000e+00
2.500000000000e+00 5.000000000000e+00 -3.000000000000e+00
1.250000000000e+00 5.000000000000e+00 -3.000000000000e+00
9.560744151940e-01 2.677827143250e+00 -3.000000000000e+00
6.659597640160e-01 1.438876720610e+00 -3.000000000000e+00
2.309219871940e+00 9.522638293400e-01 -3.000000000000e+00
3.458157207860e+00 6.354750772000e-01 -3.000000000000e+00
4.043925584810e+00 2.322172856750e+00 -3.000000000000e+00
4.334040235980e+00 3.561123279390e+00 -3.000000000000e+00
2.318530875810e+00 4.048536535600e+00 -3.000000000000e+00
3.552396921680e+00 4.370927842320e+00 -3.000000000000e+00
2.500000000000e+00 2.500000000000e+00 -3.000000000000e+00
0.000000000000e+00 0.000000000000e+00 -5.000000000000e+00
5.000000000000e+00 0.000000000000e+00 -5.000000000000e+00
5.000000000000e+00 5.000000000000e+00 -5.000000000000e+00
0.000000000000e+00 5.000000000000e+00 -5.000000000000e+00
2.244234909000e+00 2.244234909000e+00 -5.000000000000e+00
[...]
POINT_DATA 1394
SCALARS TEMPERATURE1 double 1
LOOKUP_TABLE default
1.000000000000e+01
1.000000000000e+01
1.000000000000e+01
1.000000000000e+01
1.000000000000e+01
1.000000000000e+01
1.000000000000e+01
1.000000000000e+01
1.000000000000e+01
1.000000000000e+01
1.000000000000e+01
1.000000000000e+01
1.000000000000e+01
1.000000000000e+01
1.000000000000e+01
1.000000000000e+01
1.000000000000e+01
1.000000000000e+01
1.000000000000e+01
1.000000000000e+01
1.000000000000e+01
1.000000000000e+01
1.000000000000e+01
1.000000000000e+01
1.000000000000e+01
1.000000000000e+01
1.000000000000e+01
1.000000000000e+01
1.000000000000e+01
1.000000000000e+01
1.000000000000e+01
1.000000000000e+01
1.000000000000e+01
1.000000000000e+01
1.000000000000e+01
1.000000000000e+01
1.000000000000e+01
1.000000000000e+01
1.000000000000e+01
1.000000000000e+01
1.000000000000e+01
1.870785330452e+01
1.870679303222e+01
1.869951918541e+01
1.870217717427e+01
2.252402716613e+01
2.255123951337e+01
2.263615344866e+01
2.242004530624e+01
1.899987994723e+01
1.991577973145e+01
2.146327405352e+01
2.150783112733e+01
1.987619842277e+01
1.899809519893e+01
1.893475501081e+01
1.928343901209e+01
1.902389112832e+01
1.899961064405e+01
1.991232023734e+01
2.145991554676e+01
1.893786263474e+01
1.928530510197e+01
1.901535783786e+01
1.898628642787e+01
1.995620945346e+01
2.141622448008e+01
1.893416438998e+01
1.928412477781e+01
1.902605143691e+01
1.902387003759e+01
1.928468211705e+01
1.893492325516e+01
1.990260377314e+01
1.929222659147e+01
1.989766516896e+01
1.930042453809e+01
1.989955695999e+01
1.930451419877e+01
1.989291982440e+01
1.928099324612e+01
2.065974793172e+01
2.794511966852e+01
2.794292121169e+01
2.793178200610e+01
2.793237765353e+01
3.912363211501e+01
3.907875977667e+01
3.901536168476e+01
3.918286939065e+01
2.850892536714e+01
3.022363519276e+01
3.353450369368e+01
3.359446697553e+01
3.013829445392e+01
2.851213247724e+01
2.839734621217e+01
2.904891174298e+01
2.855026405334e+01
2.850798143823e+01
3.021675405835e+01
3.351081201549e+01
2.840225722930e+01
2.905260085006e+01
2.853422644302e+01
2.847363358702e+01
3.031263753669e+01
3.346766803550e+01
2.839515477550e+01
2.904956215051e+01
2.855449198054e+01
2.855057515881e+01
2.905081098730e+01
2.839756259820e+01
3.013212820424e+01
2.905677680221e+01
3.012377429853e+01
2.907152608487e+01
3.012810017751e+01
2.907978075020e+01
3.011356466207e+01
2.903624353520e+01
5.280010786218e+01
3.284727175637e+01
3.284430647222e+01
3.283333305751e+01
3.283415188726e+01
4.308652426732e+01
4.306221215356e+01
4.303974319086e+01
4.310310377629e+01
3.344411249812e+01
3.517216014395e+01
3.833340723804e+01
3.839634679470e+01
3.509065086350e+01
3.344769772924e+01
3.334367231476e+01
3.403482711036e+01
3.349581577394e+01
3.344253028975e+01
3.516584821326e+01
3.831397867435e+01
3.334825105547e+01
3.403843539813e+01
3.347921078541e+01
3.340899459750e+01
3.525858306594e+01
3.826572571412e+01
3.334068053249e+01
3.403588101665e+01
3.349960619521e+01
3.349569381743e+01
3.403681899490e+01
3.334385429855e+01
3.512666636050e+01
3.401745584275e+01
3.511801834302e+01
3.403536837788e+01
3.512344945259e+01
3.404034110390e+01
3.510900013337e+01
3.399668126000e+01
5.375781288443e+01
3.532689486627e+01
3.532388017402e+01
3.531443014200e+01
3.531505539037e+01
4.445797706170e+01
4.443331749640e+01
4.440782297964e+01
4.447798992044e+01
3.587165746515e+01
3.741303097764e+01
4.020200588194e+01
4.025690925140e+01
3.734104250939e+01
3.587565562154e+01
3.578752600956e+01
3.641720121349e+01
3.592121462372e+01
3.586992735195e+01
3.740763940605e+01
4.018482236743e+01
3.579128459530e+01
3.642031693288e+01
3.590621587832e+01
3.583966058882e+01
3.749024118343e+01
4.014391295993e+01
3.578435177243e+01
3.641819980834e+01
3.592451368329e+01
3.592102375199e+01
3.641899590779e+01
3.578768596476e+01
3.738469800439e+01
3.639134045416e+01
3.737694876646e+01
3.640838800824e+01
3.738227170829e+01
3.641163212372e+01
3.736930390830e+01
3.637282797136e+01
5.424095047514e+01
3.637304545762e+01
3.637018552603e+01
3.636117837703e+01
3.636194219317e+01
4.508552230083e+01
4.506199084511e+01
4.503838335193e+01
4.510326836602e+01
3.688912767253e+01
3.835295535278e+01
4.101432588478e+01
4.106677489498e+01
3.828425412540e+01
3.689298935208e+01
3.680895711418e+01
3.740523369417e+01
3.693589363057e+01
3.688748340833e+01
3.834776174792e+01
4.099764153988e+01
3.681246110156e+01
3.740817843930e+01
3.692164710098e+01
3.685869137840e+01
3.842656699145e+01
4.095833286009e+01
3.680587683455e+01
3.740615674398e+01
3.693903797711e+01
3.693573341414e+01
3.740694538166e+01
3.680910685983e+01
3.832299184622e+01
3.738161268117e+01
3.831565505211e+01
3.739764166511e+01
3.832075950836e+01
3.740092257691e+01
3.830841220127e+01
3.736407914616e+01
5.440171526570e+01
3.675650426673e+01
3.675371230612e+01
3.674494121209e+01
3.674557046323e+01
4.528745584354e+01
4.526420143918e+01
4.524072727729e+01
4.530514907857e+01
3.726206056928e+01
3.869526541780e+01
4.129956413757e+01
4.135083424470e+01
3.862804215112e+01
3.726585627445e+01
3.718358955870e+01
3.776767244923e+01
3.730782061764e+01
3.726044965146e+01
3.869019266495e+01
4.128324378807e+01
3.718703440533e+01
3.777055200719e+01
3.729387170560e+01
3.723224000392e+01
3.876731978329e+01
4.124488305284e+01
3.718058320145e+01
3.776856744429e+01
3.731090884287e+01
3.730767375438e+01
3.776934365896e+01
3.718373070291e+01
3.866633363188e+01
3.774442816308e+01
3.865915164828e+01
3.776014254087e+01
3.866415086648e+01
3.776332235527e+01
3.865205971746e+01
3.772724966460e+01
5.442966083269e+01
3.686819405954e+01
3.686543133949e+01
3.685672617631e+01
3.685734917817e+01
4.533147950428e+01
4.530837243062e+01
4.528504300433e+01
4.534904156865e+01
3.736933493401e+01
3.879033209243e+01
4.137365018264e+01
4.142449335635e+01
3.872364364318e+01
3.737309615951e+01
3.729149633965e+01
3.787045154942e+01
3.741467014398e+01
3.736774129380e+01
3.878529775888e+01
4.135743446382e+01
3.729491715783e+01
3.787331210181e+01
3.740084405342e+01
3.733975503974e+01
3.886179426367e+01
4.131937701872e+01
3.728852220236e+01
3.787133888428e+01
3.741772945446e+01
3.741452172558e+01
3.787210533300e+01
3.729163456467e+01
3.876135804762e+01
3.784749745442e+01
3.875424484719e+01
3.786306695169e+01
3.875920215829e+01
3.786623011259e+01
3.874720512215e+01
3.783046364093e+01
5.440628835946e+01
3.658731983413e+01
3.658460595076e+01
3.657587573566e+01
3.657649849339e+01
4.503434861516e+01
4.501117679073e+01
4.498711331042e+01
4.505319755410e+01
3.708602835082e+01
3.850445871405e+01
4.108326507167e+01
4.113393741524e+01
3.843791088691e+01
3.708964361912e+01
3.700757706831e+01
3.758401552115e+01
3.713086636223e+01
3.708448741364e+01
3.849942397264e+01
4.106721488269e+01
3.701105273875e+01
3.758688513148e+01
3.711709083437e+01
3.705664142843e+01
3.857567873481e+01
4.102938215683e+01
3.700470443466e+01
3.758490773778e+01
3.713393578649e+01
3.713072925667e+01
3.758567258108e+01
3.700772783391e+01
3.847474246659e+01
3.756239475447e+01
3.846761776539e+01
3.757782044309e+01
3.847244471892e+01
3.758110727439e+01
3.846051610510e+01
3.754538085952e+01
5.410226708907e+01
3.629575379875e+01
3.629307517321e+01
3.628430262528e+01
3.628493412803e+01
4.474770008547e+01
4.472446704996e+01
4.469980497247e+01
4.476760849146e+01
3.679345993336e+01
3.821282214841e+01
4.079377586297e+01
4.084442944223e+01
3.814623984940e+01
3.679696047461e+01
3.671431386981e+01
3.728983757883e+01
3.683797139324e+01
3.679196008597e+01
3.820777356405e+01
4.077782151165e+01
3.671784142210e+01
3.729272093102e+01
3.682420814595e+01
3.676417200036e+01
3.828399859387e+01
4.074006980721e+01
3.671151857765e+01
3.729073544908e+01
3.684105547577e+01
3.683784352461e+01
3.729150124513e+01
3.671447547237e+01
3.818233203486e+01
3.726931984566e+01
3.817518243218e+01
3.728465354774e+01
3.817991153651e+01
3.728805787270e+01
3.816801413037e+01
3.725228748259e+01
5.383025982411e+01
3.607714703859e+01
3.607450186560e+01
3.606571032197e+01
3.606634587461e+01
4.451912867988e+01
4.449587028259e+01
4.447073549180e+01
4.453989399157e+01
3.657320052049e+01
3.799094168431e+01
4.056929287059e+01
4.061984258165e+01
3.792444372036e+01
3.657660159320e+01
3.649361846733e+01
3.706743087439e+01
3.661736903690e+01
3.657173684666e+01
3.798589046650e+01
4.055344444337e+01
3.649718279935e+01
3.707032050817e+01
3.660363894890e+01
3.654404253052e+01
3.806196270502e+01
4.051582884552e+01
3.649089140239e+01
3.706833170544e+01
3.662046021574e+01
3.661724920694e+01
3.706909714442e+01
3.649378866818e+01
3.795987642197e+01
3.704784937653e+01
3.795271827140e+01
3.706308226987e+01
3.795735892967e+01
3.706657658430e+01
3.794550723755e+01
3.703083026754e+01
5.359917280871e+01
3.590367006978e+01
3.590105349206e+01
3.589225087816e+01
3.589288942251e+01
4.433373429065e+01
4.431046270721e+01
4.428494543704e+01
4.435519978989e+01
3.639813770023e+01
3.781389462595e+01
4.038894351837e+01
4.043938436624e+01
3.774749618600e+01
3.640145613312e+01
3.631823473035e+01
3.689037617097e+01
3.644200390851e+01
3.639670428893e+01
3.780884342443e+01
4.037318848542e+01
3.632182722666e+01
3.689326938702e+01
3.642830722798e+01
3.636909969468e+01
3.788475609066e+01
4.033570286470e+01
3.631556449646e+01
3.689127883758e+01
3.644509965512e+01
3.644189098971e+01
3.689204391357e+01
3.631841193103e+01
3.778236718461e+01
3.687157276817e+01
3.777520515122e+01
3.688671559343e+01
3.777977118892e+01
3.689028259179e+01
3.776796262573e+01
3.685457261352e+01
5.340791723507e+01
3.577617524658e+01
3.577358260887e+01
3.576477768101e+01
3.576541776210e+01
4.419153762721e+01
4.416826646023e+01
4.414245886992e+01
4.421354440563e+01
3.626908305487e+01
3.768236522349e+01
4.025315505369e+01
4.030347700924e+01
3.761608804192e+01
3.627233532667e+01
3.618898246417e+01
3.675944642286e+01
3.631268450794e+01
3.626767410166e+01
3.767731731474e+01
4.023748296611e+01
3.619259431068e+01
3.676234030354e+01
3.629902272766e+01
3.624015764211e+01
3.775305619419e+01
4.020012534508e+01
3.618635801419e+01
3.676034979521e+01
3.631578199404e+01
3.631257731752e+01
3.676111433318e+01
3.618916504620e+01
3.765049810197e+01
3.674126185712e+01
3.764333751692e+01
3.675632442129e+01
3.764784236559e+01
3.675994594812e+01
3.763607537900e+01
3.672428776985e+01
5.325558493287e+01
3.569232519256e+01
3.568975163691e+01
3.568095200203e+01
3.568159238832e+01
4.409112561106e+01
4.406786585869e+01
4.404185625067e+01
4.411351907773e+01
3.618375069086e+01
3.759422320083e+01
4.016008191945e+01
4.021028045552e+01
3.752808167411e+01
3.618695334415e+01
3.610356574372e+01
3.667240583411e+01
3.622712919799e+01
3.618236033834e+01
3.758918128733e+01
4.014448085324e+01
3.610718864173e+01
3.667529783992e+01
3.621350236817e+01
3.615492755743e+01
3.766474033992e+01
4.010724526961e+01
3.610097594510e+01
3.667330894200e+01
3.623022593966e+01
3.622702653571e+01
3.667407281160e+01
3.610375214108e+01
3.756213363930e+01
3.665468100546e+01
3.755497901515e+01
3.666967458095e+01
3.755943639123e+01
3.667333310333e+01
3.754770819788e+01
3.663773821940e+01
5.314166227437e+01
3.564589988519e+01
3.564334005536e+01
3.563454995523e+01
3.563518971224e+01
4.402909560457e+01
4.400585341524e+01
4.397971973875e+01
4.405173667219e+01
3.613607651510e+01
3.754389995087e+01
4.010504747364e+01
4.015513547666e+01
3.747788593378e+01
3.613924572187e+01
3.605588383310e+01
3.662333787857e+01
3.617928442735e+01
3.613469889831e+01
3.753886490240e+01
4.008950167570e+01
3.605951129346e+01
3.662622650400e+01
3.616568802362e+01
3.610733699086e+01
3.761426326474e+01
4.005236956117e+01
3.605331751355e+01
3.662424006628e+01
3.618237928762e+01
3.617918525530e+01
3.662500351012e+01
3.605607268480e+01
3.751168748706e+01
3.660592171872e+01
3.750454049851e+01
3.662086157260e+01
3.750896448891e+01
3.662454234790e+01
3.749726877656e+01
3.658900947065e+01
5.306596663527e+01
3.565897802661e+01
3.565642900490e+01
3.564766528008e+01
3.564830202875e+01
4.401687301254e+01
4.399366905790e+01
4.396751615806e+01
4.403958079207e+01
3.614752675339e+01
3.755097132964e+01
4.010423946670e+01
4.015416219923e+01
3.748516259250e+01
3.615067875011e+01
3.606753400981e+01
3.663311956786e+01
3.619057091454e+01
3.614615660376e+01
3.754595093366e+01
4.008874873493e+01
3.607115325757e+01
3.663599944425e+01
3.617701816737e+01
3.611888547062e+01
3.762111106592e+01
4.005175204984e+01
3.606498119658e+01
3.663401902141e+01
3.619365796862e+01
3.619047386623e+01
3.663478093757e+01
3.606772332438e+01
3.751879165267e+01
3.661584562508e+01
3.751166455109e+01
3.663073035132e+01
3.751606659309e+01
3.663440964047e+01
3.750441097759e+01
3.659898598785e+01
5.302788001829e+01
3.569829571768e+01
3.569575519674e+01
3.568701880097e+01
3.568763001346e+01
4.403760355236e+01
4.401446660871e+01
4.398834631850e+01
4.406033313479e+01
3.618583501111e+01
3.758652349734e+01
4.013424782341e+01
4.018405876610e+01
3.752086367606e+01
3.618897391376e+01
3.610594703489e+01
3.667038721067e+01
3.622875838163e+01
3.618446988250e+01
3.758151536510e+01
4.011880642769e+01
3.610956474039e+01
3.667325963167e+01
3.621523268216e+01
3.615726039147e+01
3.765650805352e+01
4.008190245079e+01
3.610340547043e+01
3.667128263826e+01
3.623184362792e+01
3.622866546232e+01
3.667204545053e+01
3.610613585859e+01
3.755448451073e+01
3.665321454412e+01
3.754736849385e+01
3.666806647752e+01
3.755175489798e+01
3.667174194576e+01
3.754012698867e+01
3.663638584852e+01
5.303396932557e+01
3.572584138701e+01
3.572329452591e+01
3.571451439480e+01
3.571526295864e+01
4.406002413132e+01
4.403679487103e+01
4.401084034810e+01
4.408228126650e+01
3.621212090116e+01
3.760920328605e+01
4.015458040682e+01
4.020435484394e+01
3.754356735185e+01
3.621527744087e+01
3.613259989419e+01
3.669546350047e+01
3.625503841159e+01
3.621075245049e+01
3.760418998812e+01
4.013904457512e+01
3.613618515959e+01
3.669834181344e+01
3.624155068697e+01
3.618356150581e+01
3.767912257404e+01
4.010209319075e+01
3.613004046939e+01
3.669636660201e+01
3.625809439881e+01
3.625492347229e+01
3.669711371876e+01
3.613278797777e+01
3.757643785225e+01
3.667820973219e+01
3.756936342521e+01
3.669301744357e+01
3.757377113883e+01
3.669669260426e+01
3.756214001993e+01
3.666143404877e+01
5.303166237013e+01
3.557421562454e+01
3.557166818833e+01
3.556299485658e+01
3.556314797711e+01
4.392263867527e+01
4.389952453434e+01
4.387236217593e+01
4.394731065701e+01
3.606793536352e+01
3.747920436344e+01
4.002820438239e+01
4.007791715879e+01
3.741351958638e+01
3.607106616688e+01
3.598803785573e+01
3.655975670583e+01
3.611162929119e+01
3.606655349621e+01
3.747426714445e+01
4.001308137593e+01
3.599179451131e+01
3.656267490308e+01
3.609800079468e+01
3.603911755560e+01
3.754933519675e+01
3.997653379431e+01
3.598557208447e+01
3.656067988764e+01
3.611472081505e+01
3.611151298657e+01
3.656140154719e+01
3.598821255338e+01
3.745155128428e+01
3.654071381774e+01
3.744437209812e+01
3.655595424578e+01
3.744876913060e+01
3.655930657268e+01
3.743706525772e+01
3.652367738323e+01
5.299335816355e+01
3.479159034623e+01
3.478955734376e+01
3.477996622424e+01
3.478080863844e+01
4.363419378797e+01
4.361122638097e+01
4.359048277579e+01
4.364796984559e+01
3.527709852070e+01
3.673336344767e+01
3.946294166130e+01
3.951692734652e+01
3.666302592914e+01
3.527937791224e+01
3.518494826136e+01
3.574800192390e+01
3.531538870433e+01
3.527616212240e+01
3.672768102137e+01
3.944551437251e+01
3.518911305822e+01
3.575111286253e+01
3.530164792624e+01
3.524804836184e+01
3.680687830703e+01
3.940356807051e+01
3.518296817874e+01
3.574872557501e+01
3.531880107275e+01
3.531548877074e+01
3.574966268967e+01
3.518511054623e+01
3.667389558106e+01
3.574821328123e+01
3.666669237096e+01
3.576165489203e+01
3.667066175415e+01
3.576766848904e+01
3.665851205458e+01
3.573071388779e+01
5.279672377141e+01
3.304768614265e+01
3.304641777181e+01
3.303992308658e+01
3.304123810658e+01
4.014375666812e+01
4.010080398042e+01
4.001967017877e+01
4.023238380853e+01
3.335549734585e+01
3.430647626346e+01
3.626279916287e+01
3.629208089635e+01
3.425592418734e+01
3.335817550002e+01
3.329377577178e+01
3.364585008479e+01
3.337714214754e+01
3.335503622295e+01
3.430225694224e+01
3.624589847103e+01
3.329619606643e+01
3.364804641432e+01
3.336828651227e+01
3.333446823836e+01
3.435879355753e+01
3.622880528400e+01
3.329239864716e+01
3.364625375522e+01
3.337938270620e+01
3.337727172908e+01
3.364693228348e+01
3.329400671198e+01
3.423088768042e+01
3.365360006550e+01
3.422632468014e+01
3.366096483772e+01
3.422854530830e+01
3.366662149490e+01
3.422021275474e+01
3.364254147904e+01
5.128014129972e+01
3.253157205239e+01
3.253041479280e+01
3.252574341728e+01
3.252684596178e+01
3.543099194265e+01
3.544690315950e+01
3.550753065717e+01
3.535086505860e+01
3.276253095069e+01
3.343066709646e+01
3.455519635034e+01
3.458722174343e+01
3.340156761161e+01
3.276277972802e+01
3.272316327219e+01
3.299467584102e+01
3.278423862163e+01
3.276184424436e+01
3.342832843463e+01
3.455130601822e+01
3.272498289334e+01
3.299595869795e+01
3.277779034038e+01
3.275081678543e+01
3.346138063039e+01
3.451998596476e+01
3.272192050789e+01
3.299511710386e+01
3.278567119950e+01
3.278411577123e+01
3.299546551371e+01
3.272312515051e+01
3.343085571936e+01
3.298668119551e+01
3.342756189903e+01
3.299403585614e+01
3.343012471894e+01
3.299538524889e+01
3.342470873369e+01
3.297846986883e+01
3.380143993112e+01
3.202337875730e+01
3.202223474545e+01
3.202024502396e+01
3.201961094658e+01
3.320606998301e+01
3.321981119483e+01
3.324386220879e+01
3.318676474851e+01
3.218227583130e+01
3.258423131224e+01
3.308396142276e+01
3.309857421726e+01
3.257187775356e+01
3.218220378318e+01
3.216460170533e+01
3.235396773289e+01
3.220099153621e+01
3.218163973827e+01
3.258370206146e+01
3.308658869481e+01
3.216589406668e+01
3.235460038758e+01
3.219682415150e+01
3.217620662946e+01
3.259896532846e+01
3.307502514795e+01
3.216398627690e+01
3.235457542005e+01
3.220176518679e+01
3.220079668556e+01
3.235460804207e+01
3.216475567595e+01
3.262811441319e+01
3.233317756229e+01
3.262538584476e+01
3.233988289621e+01
3.262643255327e+01
3.233823283258e+01
3.262403105042e+01
3.232805262453e+01
3.360598394158e+01
3.155034576280e+01
3.154941783762e+01
3.154903286454e+01
3.154763805499e+01
3.217904294458e+01
3.218192968482e+01
3.218656067292e+01
3.217665407305e+01
3.165067935377e+01
3.186550338182e+01
3.208875338876e+01
3.209462957005e+01
3.185995371537e+01
3.165156129627e+01
3.164725179843e+01
3.176478440358e+01
3.166418539168e+01
3.165000441382e+01
3.186556995038e+01
3.209044973571e+01
3.164775597840e+01
3.176502581427e+01
3.166176942708e+01
3.164652151434e+01
3.187332352952e+01
3.208739090605e+01
3.164650975732e+01
3.176512669483e+01
3.166455150424e+01
3.166403312391e+01
3.176509092237e+01
3.164728119484e+01
3.190517299293e+01
3.174162485687e+01
3.190371766876e+01
3.174654125465e+01
3.190479689429e+01
3.174409415792e+01
3.190337737731e+01
3.173879186633e+01
3.213182674256e+01
3.113412263512e+01
3.113339697920e+01
3.113312537158e+01
3.113301563766e+01
3.142553644527e+01
3.142712923975e+01
3.143043480518e+01
3.142270117029e+01
3.119045649789e+01
3.129513846624e+01
3.139524028845e+01
3.139814878667e+01
3.129251401849e+01
3.119138202783e+01
3.119281632924e+01
3.125774152657e+01
3.119981228625e+01
3.118991161605e+01
3.129522304230e+01
3.139593339549e+01
3.119277165897e+01
3.125785693119e+01
3.119851496522e+01
3.118797717340e+01
3.129919711199e+01
3.139439436131e+01
3.119205493298e+01
3.125801812780e+01
3.119982414808e+01
3.119958999029e+01
3.125791060980e+01
3.119283471106e+01
3.131976362345e+01
3.123950023503e+01
3.131908212506e+01
3.124254963765e+01
3.132002327536e+01
3.124066571180e+01
3.131921266022e+01
3.123819460332e+01
3.143961608910e+01
3.011051803766e+01
3.011042262330e+01
3.011038131910e+01
3.011077067914e+01
3.010326976154e+01
3.010317945495e+01
3.010296026162e+01
3.010356223680e+01
3.011060365621e+01
3.010831144782e+01
3.010457259519e+01
3.010452136590e+01
3.010841100610e+01
3.011071745028e+01
3.011145969764e+01
3.011147881138e+01
3.011108882228e+01
3.011054975227e+01
3.010830908483e+01
3.010455626214e+01
3.011131609596e+01
3.011143825763e+01
3.011106788594e+01
3.011064073569e+01