# vtk DataFile Version 3.0
Unstructured Grid from OpenGeoSys
ASCII
DATASET UNSTRUCTURED_GRID
FIELD TimesAndCycles 2
TIME 1 1 double
3.600000000000e+03
CYLCE 1 1 long
1
POINTS 1394 double
0.000000000000e+00 0.000000000000e+00 0.000000000000e+00
5.000000000000e+00 0.000000000000e+00 0.000000000000e+00
5.000000000000e+00 5.000000000000e+00 0.000000000000e+00
0.000000000000e+00 5.000000000000e+00 0.000000000000e+00
2.244234909000e+00 2.244234909000e+00 0.000000000000e+00
2.755765091000e+00 2.244234909000e+00 0.000000000000e+00
2.755765091000e+00 2.755765091000e+00 0.000000000000e+00
2.244234909000e+00 2.755765091000e+00 0.000000000000e+00
7.141316008320e-01 7.141316008320e-01 0.000000000000e+00
1.314642334730e+00 1.314642334730e+00 0.000000000000e+00
1.819609643610e+00 1.819609643610e+00 0.000000000000e+00
1.819609643610e+00 3.180390356390e+00 0.000000000000e+00
1.314642334740e+00 3.685357665260e+00 0.000000000000e+00
7.141316008360e-01 4.285868399160e+00 0.000000000000e+00
0.000000000000e+00 3.750000000000e+00 0.000000000000e+00
0.000000000000e+00 2.500000000000e+00 0.000000000000e+00
0.000000000000e+00 1.250000000000e+00 0.000000000000e+00
4.285868399170e+00 7.141316008320e-01 0.000000000000e+00
3.685357665270e+00 1.314642334730e+00 0.000000000000e+00
3.180390356390e+00 1.819609643610e+00 0.000000000000e+00
1.250000000000e+00 0.000000000000e+00 0.000000000000e+00
2.500000000000e+00 0.000000000000e+00 0.000000000000e+00
3.750000000000e+00 0.000000000000e+00 0.000000000000e+00
4.285868399170e+00 4.285868399170e+00 0.000000000000e+00
3.685357665270e+00 3.685357665270e+00 0.000000000000e+00
3.180390356390e+00 3.180390356390e+00 0.000000000000e+00
5.000000000000e+00 1.250000000000e+00 0.000000000000e+00
5.000000000000e+00 2.500000000000e+00 0.000000000000e+00
5.000000000000e+00 3.750000000000e+00 0.000000000000e+00
3.750000000000e+00 5.000000000000e+00 0.000000000000e+00
2.500000000000e+00 5.000000000000e+00 0.000000000000e+00
1.250000000000e+00 5.000000000000e+00 0.000000000000e+00
9.560744151940e-01 2.677827143250e+00 0.000000000000e+00
6.659597640160e-01 1.438876720610e+00 0.000000000000e+00
2.309219871940e+00 9.522638293400e-01 0.000000000000e+00
3.458157207860e+00 6.354750772000e-01 0.000000000000e+00
4.043925584810e+00 2.322172856750e+00 0.000000000000e+00
4.334040235980e+00 3.561123279390e+00 0.000000000000e+00
2.318530875810e+00 4.048536535600e+00 0.000000000000e+00
3.552396921680e+00 4.370927842320e+00 0.000000000000e+00
2.500000000000e+00 2.500000000000e+00 0.000000000000e+00
0.000000000000e+00 0.000000000000e+00 -5.000000000000e-01
5.000000000000e+00 0.000000000000e+00 -5.000000000000e-01
5.000000000000e+00 5.000000000000e+00 -5.000000000000e-01
0.000000000000e+00 5.000000000000e+00 -5.000000000000e-01
2.244234909000e+00 2.244234909000e+00 -5.000000000000e-01
2.755765091000e+00 2.244234909000e+00 -5.000000000000e-01
2.755765091000e+00 2.755765091000e+00 -5.000000000000e-01
2.244234909000e+00 2.755765091000e+00 -5.000000000000e-01
7.141316008320e-01 7.141316008320e-01 -5.000000000000e-01
1.314642334730e+00 1.314642334730e+00 -5.000000000000e-01
1.819609643610e+00 1.819609643610e+00 -5.000000000000e-01
1.819609643610e+00 3.180390356390e+00 -5.000000000000e-01
1.314642334740e+00 3.685357665260e+00 -5.000000000000e-01
7.141316008360e-01 4.285868399160e+00 -5.000000000000e-01
0.000000000000e+00 3.750000000000e+00 -5.000000000000e-01
0.000000000000e+00 2.500000000000e+00 -5.000000000000e-01
0.000000000000e+00 1.250000000000e+00 -5.000000000000e-01
4.285868399170e+00 7.141316008320e-01 -5.000000000000e-01
3.685357665270e+00 1.314642334730e+00 -5.000000000000e-01
3.180390356390e+00 1.819609643610e+00 -5.000000000000e-01
1.250000000000e+00 0.000000000000e+00 -5.000000000000e-01
2.500000000000e+00 0.000000000000e+00 -5.000000000000e-01
3.750000000000e+00 0.000000000000e+00 -5.000000000000e-01
4.285868399170e+00 4.285868399170e+00 -5.000000000000e-01
3.685357665270e+00 3.685357665270e+00 -5.000000000000e-01
3.180390356390e+00 3.180390356390e+00 -5.000000000000e-01
5.000000000000e+00 1.250000000000e+00 -5.000000000000e-01
5.000000000000e+00 2.500000000000e+00 -5.000000000000e-01
5.000000000000e+00 3.750000000000e+00 -5.000000000000e-01
3.750000000000e+00 5.000000000000e+00 -5.000000000000e-01
2.500000000000e+00 5.000000000000e+00 -5.000000000000e-01
1.250000000000e+00 5.000000000000e+00 -5.000000000000e-01
9.560744151940e-01 2.677827143250e+00 -5.000000000000e-01
6.659597640160e-01 1.438876720610e+00 -5.000000000000e-01
2.309219871940e+00 9.522638293400e-01 -5.000000000000e-01
3.458157207860e+00 6.354750772000e-01 -5.000000000000e-01
4.043925584810e+00 2.322172856750e+00 -5.000000000000e-01
4.334040235980e+00 3.561123279390e+00 -5.000000000000e-01
2.318530875810e+00 4.048536535600e+00 -5.000000000000e-01
3.552396921680e+00 4.370927842320e+00 -5.000000000000e-01
2.500000000000e+00 2.500000000000e+00 -5.000000000000e-01
0.000000000000e+00 0.000000000000e+00 -1.000000000000e+00
5.000000000000e+00 0.000000000000e+00 -1.000000000000e+00
5.000000000000e+00 5.000000000000e+00 -1.000000000000e+00
0.000000000000e+00 5.000000000000e+00 -1.000000000000e+00
2.244234909000e+00 2.244234909000e+00 -1.000000000000e+00
2.755765091000e+00 2.244234909000e+00 -1.000000000000e+00
2.755765091000e+00 2.755765091000e+00 -1.000000000000e+00
2.244234909000e+00 2.755765091000e+00 -1.000000000000e+00
7.141316008320e-01 7.141316008320e-01 -1.000000000000e+00
1.314642334730e+00 1.314642334730e+00 -1.000000000000e+00
1.819609643610e+00 1.819609643610e+00 -1.000000000000e+00
1.819609643610e+00 3.180390356390e+00 -1.000000000000e+00
1.314642334740e+00 3.685357665260e+00 -1.000000000000e+00
7.141316008360e-01 4.285868399160e+00 -1.000000000000e+00
0.000000000000e+00 3.750000000000e+00 -1.000000000000e+00
0.000000000000e+00 2.500000000000e+00 -1.000000000000e+00
0.000000000000e+00 1.250000000000e+00 -1.000000000000e+00
4.285868399170e+00 7.141316008320e-01 -1.000000000000e+00
3.685357665270e+00 1.314642334730e+00 -1.000000000000e+00
3.180390356390e+00 1.819609643610e+00 -1.000000000000e+00
1.250000000000e+00 0.000000000000e+00 -1.000000000000e+00
2.500000000000e+00 0.000000000000e+00 -1.000000000000e+00
3.750000000000e+00 0.000000000000e+00 -1.000000000000e+00
4.285868399170e+00 4.285868399170e+00 -1.000000000000e+00
3.685357665270e+00 3.685357665270e+00 -1.000000000000e+00
3.180390356390e+00 3.180390356390e+00 -1.000000000000e+00
5.000000000000e+00 1.250000000000e+00 -1.000000000000e+00
5.000000000000e+00 2.500000000000e+00 -1.000000000000e+00
5.000000000000e+00 3.750000000000e+00 -1.000000000000e+00
3.750000000000e+00 5.000000000000e+00 -1.000000000000e+00
2.500000000000e+00 5.000000000000e+00 -1.000000000000e+00
1.250000000000e+00 5.000000000000e+00 -1.000000000000e+00
9.560744151940e-01 2.677827143250e+00 -1.000000000000e+00
6.659597640160e-01 1.438876720610e+00 -1.000000000000e+00
2.309219871940e+00 9.522638293400e-01 -1.000000000000e+00
3.458157207860e+00 6.354750772000e-01 -1.000000000000e+00
4.043925584810e+00 2.322172856750e+00 -1.000000000000e+00
4.334040235980e+00 3.561123279390e+00 -1.000000000000e+00
2.318530875810e+00 4.048536535600e+00 -1.000000000000e+00
3.552396921680e+00 4.370927842320e+00 -1.000000000000e+00
2.500000000000e+00 2.500000000000e+00 -1.000000000000e+00
0.000000000000e+00 0.000000000000e+00 -3.000000000000e+00
5.000000000000e+00 0.000000000000e+00 -3.000000000000e+00
5.000000000000e+00 5.000000000000e+00 -3.000000000000e+00
0.000000000000e+00 5.000000000000e+00 -3.000000000000e+00
2.244234909000e+00 2.244234909000e+00 -3.000000000000e+00
2.755765091000e+00 2.244234909000e+00 -3.000000000000e+00
2.755765091000e+00 2.755765091000e+00 -3.000000000000e+00
2.244234909000e+00 2.755765091000e+00 -3.000000000000e+00
7.141316008320e-01 7.141316008320e-01 -3.000000000000e+00
1.314642334730e+00 1.314642334730e+00 -3.000000000000e+00
1.819609643610e+00 1.819609643610e+00 -3.000000000000e+00
1.819609643610e+00 3.180390356390e+00 -3.000000000000e+00
1.314642334740e+00 3.685357665260e+00 -3.000000000000e+00
7.141316008360e-01 4.285868399160e+00 -3.000000000000e+00
0.000000000000e+00 3.750000000000e+00 -3.000000000000e+00
0.000000000000e+00 2.500000000000e+00 -3.000000000000e+00
0.000000000000e+00 1.250000000000e+00 -3.000000000000e+00
4.285868399170e+00 7.141316008320e-01 -3.000000000000e+00
3.685357665270e+00 1.314642334730e+00 -3.000000000000e+00
3.180390356390e+00 1.819609643610e+00 -3.000000000000e+00
1.250000000000e+00 0.000000000000e+00 -3.000000000000e+00
2.500000000000e+00 0.000000000000e+00 -3.000000000000e+00
3.750000000000e+00 0.000000000000e+00 -3.000000000000e+00
4.285868399170e+00 4.285868399170e+00 -3.000000000000e+00
3.685357665270e+00 3.685357665270e+00 -3.000000000000e+00
3.180390356390e+00 3.180390356390e+00 -3.000000000000e+00
5.000000000000e+00 1.250000000000e+00 -3.000000000000e+00
5.000000000000e+00 2.500000000000e+00 -3.000000000000e+00
5.000000000000e+00 3.750000000000e+00 -3.000000000000e+00
3.750000000000e+00 5.000000000000e+00 -3.000000000000e+00
2.500000000000e+00 5.000000000000e+00 -3.000000000000e+00
1.250000000000e+00 5.000000000000e+00 -3.000000000000e+00
9.560744151940e-01 2.677827143250e+00 -3.000000000000e+00
6.659597640160e-01 1.438876720610e+00 -3.000000000000e+00
2.309219871940e+00 9.522638293400e-01 -3.000000000000e+00
3.458157207860e+00 6.354750772000e-01 -3.000000000000e+00
4.043925584810e+00 2.322172856750e+00 -3.000000000000e+00
4.334040235980e+00 3.561123279390e+00 -3.000000000000e+00
2.318530875810e+00 4.048536535600e+00 -3.000000000000e+00
3.552396921680e+00 4.370927842320e+00 -3.000000000000e+00
2.500000000000e+00 2.500000000000e+00 -3.000000000000e+00
0.000000000000e+00 0.000000000000e+00 -5.000000000000e+00
5.000000000000e+00 0.000000000000e+00 -5.000000000000e+00
5.000000000000e+00 5.000000000000e+00 -5.000000000000e+00
0.000000000000e+00 5.000000000000e+00 -5.000000000000e+00
2.244234909000e+00 2.244234909000e+00 -5.000000000000e+00
[...]
POINT_DATA 1394
SCALARS TEMPERATURE1 double 1
LOOKUP_TABLE default
1.000000000000e+01
1.000000000000e+01
1.000000000000e+01
1.000000000000e+01
1.000000000000e+01
1.000000000000e+01
1.000000000000e+01
1.000000000000e+01
1.000000000000e+01
1.000000000000e+01
1.000000000000e+01
1.000000000000e+01
1.000000000000e+01
1.000000000000e+01
1.000000000000e+01
1.000000000000e+01
1.000000000000e+01
1.000000000000e+01
1.000000000000e+01
1.000000000000e+01
1.000000000000e+01
1.000000000000e+01
1.000000000000e+01
1.000000000000e+01
1.000000000000e+01
1.000000000000e+01
1.000000000000e+01
1.000000000000e+01
1.000000000000e+01
1.000000000000e+01
1.000000000000e+01
1.000000000000e+01
1.000000000000e+01
1.000000000000e+01
1.000000000000e+01
1.000000000000e+01
1.000000000000e+01
1.000000000000e+01
1.000000000000e+01
1.000000000000e+01
1.000000000000e+01
1.629255404122e+01
1.629270351149e+01
1.629333513336e+01
1.629581658272e+01
1.514501093703e+01
1.514418301750e+01
1.511363781743e+01
1.519772853064e+01
1.620178403610e+01
1.593654232477e+01
1.550189250715e+01
1.548878801722e+01
1.594778625111e+01
1.620145397895e+01
1.622081040363e+01
1.611411433769e+01
1.619703815634e+01
1.620207354533e+01
1.593720403342e+01
1.550376810707e+01
1.621978743333e+01
1.611387970698e+01
1.619950281252e+01
1.620677311348e+01
1.592404443328e+01
1.551656444540e+01
1.622117835186e+01
1.611446412763e+01
1.619587944558e+01
1.619660864110e+01
1.611398106017e+01
1.622105651284e+01
1.593410175795e+01
1.611296962936e+01
1.593512384520e+01
1.611036861088e+01
1.593389486803e+01
1.610985081737e+01
1.593629903910e+01
1.611664488117e+01
1.600624217683e+01
2.194274409002e+01
2.194410215937e+01
2.195065451276e+01
2.194291982791e+01
1.901032170468e+01
1.899221923035e+01
1.901789961874e+01
1.893070518689e+01
2.177360240594e+01
2.125242663468e+01
2.027060683655e+01
2.025303974867e+01
2.127699723079e+01
2.177431264253e+01
2.180099758332e+01
2.160310395228e+01
2.175092783698e+01
2.177365260031e+01
2.125522611162e+01
2.027434254431e+01
2.179997065435e+01
2.160114417185e+01
2.175614292843e+01
2.178177660034e+01
2.122877764140e+01
2.028806573232e+01
2.180152457101e+01
2.160122417332e+01
2.175132673473e+01
2.175211452855e+01
2.160185854527e+01
2.180020282178e+01
2.127924979836e+01
2.160873774418e+01
2.128303162341e+01
2.160354570302e+01
2.128292609741e+01
2.160059856548e+01
2.128599267773e+01
2.161377297817e+01
1.396618026915e+01
2.460859205315e+01
2.461049292544e+01
2.462050911475e+01
2.460645500360e+01
2.114960481025e+01
2.114033433057e+01
2.115948875936e+01
2.108982588612e+01
2.441678719746e+01
2.379165086357e+01
2.261344565344e+01
2.258919726722e+01
2.382206101811e+01
2.441875862071e+01
2.445202493236e+01
2.422310432306e+01
2.438861406350e+01
2.441667034950e+01
2.379525516007e+01
2.261567384039e+01
2.445111648722e+01
2.422075222200e+01
2.439464802638e+01
2.442497219868e+01
2.376327419926e+01
2.263412479103e+01
2.445264360871e+01
2.422054716621e+01
2.438911737464e+01
2.439025032262e+01
2.422138848698e+01
2.445078155477e+01
2.382890145439e+01
2.422477800042e+01
2.383358970310e+01
2.421920052416e+01
2.383417935414e+01
2.421499632371e+01
2.383752541595e+01
2.423078769752e+01
1.698965912227e+01
2.605760070626e+01
2.605954035859e+01
2.606998474838e+01
2.605476649839e+01
2.263654940435e+01
2.262230270144e+01
2.262353825000e+01
2.260203190221e+01
2.587006826745e+01
2.525284596326e+01
2.404429796338e+01
2.401727410545e+01
2.528432457161e+01
2.587179184989e+01
2.590390886007e+01
2.568114095534e+01
2.584169379190e+01
2.587005069015e+01
2.525666851514e+01
2.404799905912e+01
2.590333937547e+01
2.567876778135e+01
2.584764898794e+01
2.587851386571e+01
2.522369464323e+01
2.407138584201e+01
2.590491505445e+01
2.567862231537e+01
2.584234604937e+01
2.584343635116e+01
2.567948399994e+01
2.590274758535e+01
2.529936982198e+01
2.568255123154e+01
2.530370973845e+01
2.567731884813e+01
2.530369999619e+01
2.567283713828e+01
2.530736674614e+01
2.568833764237e+01
1.944219306438e+01
2.668857532800e+01
2.669051011936e+01
2.670130273586e+01
2.668443474883e+01
2.354930532633e+01
2.353429047841e+01
2.352331315985e+01
2.353555741838e+01
2.652375342827e+01
2.596299394572e+01
2.481889735446e+01
2.479147792635e+01
2.599317876127e+01
2.652552791658e+01
2.655398918858e+01
2.635791652424e+01
2.649662692617e+01
2.652372944109e+01
2.596686411550e+01
2.482285668973e+01
2.655386860094e+01
2.635561916439e+01
2.650200603674e+01
2.653115841215e+01
2.593567571416e+01
2.484816897089e+01
2.655519281784e+01
2.635538729957e+01
2.649750929037e+01
2.649847743358e+01
2.635631043481e+01
2.655283293112e+01
2.601710593657e+01
2.635761217239e+01
2.602097437476e+01
2.635331138279e+01
2.602083740156e+01
2.634859809590e+01
2.602425989910e+01
2.636260261855e+01
2.148953224646e+01
2.688621711736e+01
2.688813923092e+01
2.689886638245e+01
2.688154453548e+01
2.411844480525e+01
2.410035875872e+01
2.406892657650e+01
2.413705082993e+01
2.673466645072e+01
2.621718708486e+01
2.514505862865e+01
2.511636926285e+01
2.624586908345e+01
2.673633347214e+01
2.676107473355e+01
2.658080906501e+01
2.670800270763e+01
2.673473467487e+01
2.622097214524e+01
2.514889363189e+01
2.676125768744e+01
2.657862564405e+01
2.671296792110e+01
2.674143143438e+01
2.619154146763e+01
2.517740882054e+01
2.676251352166e+01
2.657836258549e+01
2.670901136891e+01
2.670989717561e+01
2.657931114484e+01
2.676002224862e+01
2.627084819831e+01
2.658192052673e+01
2.627423488246e+01
2.657796640775e+01
2.627367480560e+01
2.657359851670e+01
2.627704369590e+01
2.658643109825e+01
2.366394435069e+01
2.689349237544e+01
2.689539509518e+01
2.690614012021e+01
2.688975803462e+01
2.360780133256e+01
2.359209781740e+01
2.358637687219e+01
2.358373449776e+01
2.672127858869e+01
2.613696539194e+01
2.495401113724e+01
2.492660367417e+01
2.616796032569e+01
2.672309742915e+01
2.675365575951e+01
2.654891524219e+01
2.669405271163e+01
2.672121992640e+01
2.614088479172e+01
2.495814732819e+01
2.675335368656e+01
2.654656278396e+01
2.669965710461e+01
2.672907294036e+01
2.610874767827e+01
2.498300778077e+01
2.675475317692e+01
2.654638474147e+01
2.669485591530e+01
2.669586234868e+01
2.654728014515e+01
2.675248786862e+01
2.619126851717e+01
2.654777408804e+01
2.619533188922e+01
2.654328618032e+01
2.619528911933e+01
2.653840914897e+01
2.619881089039e+01
2.655304886029e+01
2.095430772398e+01
2.705485411948e+01
2.705664624982e+01
2.706698523596e+01
2.705059741853e+01
2.413995895184e+01
2.412253284406e+01
2.410163701174e+01
2.414157244885e+01
2.690441242413e+01
2.638522132799e+01
2.529516335583e+01
2.526786697905e+01
2.641411491190e+01
2.690598267136e+01
2.693230256650e+01
2.675391489078e+01
2.687928298600e+01
2.690442184700e+01
2.638898263600e+01
2.529979466732e+01
2.693235270144e+01
2.675174108311e+01
2.688424664558e+01
2.691145110012e+01
2.635924735772e+01
2.532648426350e+01
2.693360541376e+01
2.675157895979e+01
2.688018964051e+01
2.688106569666e+01
2.675245324318e+01
2.693127429743e+01
2.644242017968e+01
2.675257153749e+01
2.644582116026e+01
2.674885179433e+01
2.644537613590e+01
2.674418019915e+01
2.644876306139e+01
2.675710505504e+01
2.281444329308e+01
2.717260512795e+01
2.717427378588e+01
2.718410863396e+01
2.716842071917e+01
2.436018425502e+01
2.434445606063e+01
2.432066639805e+01
2.437049685940e+01
2.703302971654e+01
2.654577479992e+01
2.549663432542e+01
2.547001948129e+01
2.657371355469e+01
2.703434724998e+01
2.705941407779e+01
2.689448585653e+01
2.700989559013e+01
2.703306926497e+01
2.654939750448e+01
2.550189112453e+01
2.705957417614e+01
2.689244918719e+01
2.701452368701e+01
2.703990782307e+01
2.652065395057e+01
2.552846562134e+01
2.706077899411e+01
2.689236007602e+01
2.701072770618e+01
2.701155738234e+01
2.689314834836e+01
2.705849290237e+01
2.660516631081e+01
2.689202295715e+01
2.660819545249e+01
2.688877905064e+01
2.660755364282e+01
2.688416076118e+01
2.661093037425e+01
2.689626130771e+01
2.337654005165e+01
2.722702095499e+01
2.722860520435e+01
2.723795896268e+01
2.722318680154e+01
2.445134197886e+01
2.443732507838e+01
2.441216584101e+01
2.446737381025e+01
2.709065474138e+01
2.661655178635e+01
2.558833267827e+01
2.556213043788e+01
2.664399225437e+01
2.709173395810e+01
2.711642449409e+01
2.695581511690e+01
2.706870246294e+01
2.709073781423e+01
2.662004523135e+01
2.559397097951e+01
2.711658946702e+01
2.695388167559e+01
2.707319115895e+01
2.709764647017e+01
2.659170519246e+01
2.562031209616e+01
2.711782626008e+01
2.695386613173e+01
2.706941787033e+01
2.707024280965e+01
2.695456958083e+01
2.711559660123e+01
2.667534163098e+01
2.695324954745e+01
2.667815811036e+01
2.695013752411e+01
2.667733877736e+01
2.694568059430e+01
2.668078216263e+01
2.695744212969e+01
2.360285168723e+01
2.726888655509e+01
2.727040455925e+01
2.727937252561e+01
2.726537903370e+01
2.450943788447e+01
2.449687033868e+01
2.447129585082e+01
2.452889356328e+01
2.713407990323e+01
2.666763309604e+01
2.565303042757e+01
2.562717590026e+01
2.669473730448e+01
2.713498146792e+01
2.715958225529e+01
2.700119564402e+01
2.711300726188e+01
2.713419382665e+01
2.667102526994e+01
2.565892637335e+01
2.715972806307e+01
2.699933941738e+01
2.711741283545e+01
2.714119155662e+01
2.664292988568e+01
2.568496812507e+01
2.716099823831e+01
2.699938319557e+01
2.711361974894e+01
2.711444707605e+01
2.700001720999e+01
2.715882437080e+01
2.672560558446e+01
2.699855395003e+01
2.672828288028e+01
2.699550824024e+01
2.672734285818e+01
2.699117963321e+01
2.673084237516e+01
2.700274725833e+01
2.369972273421e+01
2.729834250181e+01
2.729981362234e+01
2.730848671626e+01
2.729512968827e+01
2.454391696186e+01
2.453237288804e+01
2.450676620756e+01
2.456531338473e+01
2.716364149201e+01
2.670034684374e+01
2.569369041194e+01
2.566808173237e+01
2.672724282599e+01
2.716441592621e+01
2.718908415913e+01
2.703108606304e+01
2.714312882702e+01
2.716377880066e+01
2.670366224528e+01
2.569973200678e+01
2.718919597799e+01
2.702928302424e+01
2.714749938765e+01
2.717087576431e+01
2.667568896085e+01
2.572550781991e+01
2.719050184245e+01
2.702937175995e+01
2.714365745354e+01
2.714449171787e+01
2.702995359533e+01
2.718837698433e+01
2.675722678062e+01
2.702851599015e+01
2.675982442766e+01
2.702547055931e+01
2.675880136289e+01
2.702125483489e+01
2.676234981082e+01
2.703274528171e+01
2.372424270871e+01
2.731274140726e+01
2.731418358696e+01
2.732264253969e+01
2.730981774962e+01
2.454491440387e+01
2.453399905805e+01
2.450888995338e+01
2.456657069320e+01
2.717630393397e+01
2.671065151835e+01
2.570453208479e+01
2.567905826331e+01
2.673750745528e+01
2.717699411368e+01
2.720196597946e+01
2.704208878744e+01
2.715603029129e+01
2.717645842129e+01
2.671391468609e+01
2.571062965862e+01
2.720202254501e+01
2.704031444980e+01
2.716042366717e+01
2.718369259338e+01
2.668588919772e+01
2.573616682058e+01
2.720337252494e+01
2.704043788684e+01
2.715648794803e+01
2.715733594964e+01
2.704098182722e+01
2.720129217179e+01
2.676614626043e+01
2.703974207198e+01
2.676872755043e+01
2.703661952700e+01
2.676765441292e+01
2.703250142795e+01
2.677125471027e+01
2.704405744322e+01
2.364138248066e+01
2.729276004776e+01
2.729419675871e+01
2.730250226093e+01
2.729025061437e+01
2.446275566336e+01
2.445202466231e+01
2.442850575130e+01
2.448190941914e+01
2.714999024702e+01
2.666962469791e+01
2.564788953410e+01
2.562234180438e+01
2.669680669558e+01
2.715062536284e+01
2.717652810044e+01
2.700928868321e+01
2.712943609172e+01
2.715016239931e+01
2.667286168206e+01
2.565394999852e+01
2.717646745360e+01
2.700750923795e+01
2.713398008672e+01
2.715769866874e+01
2.664435309793e+01
2.567926499175e+01
2.717790435093e+01
2.700766753533e+01
2.712981188736e+01
2.713069541220e+01
2.700818140040e+01
2.717587249852e+01
2.672270722157e+01
2.700757796631e+01
2.672538127096e+01
2.700419055923e+01
2.672428143231e+01
2.700018236065e+01
2.672797956246e+01
2.701212382695e+01
2.329324097455e+01
2.717462680436e+01
2.717611768520e+01
2.718432188149e+01
2.717301451904e+01
2.410038829588e+01
2.408960462239e+01
2.407603284391e+01
2.410145665029e+01
2.701197169904e+01
2.648136425698e+01
2.539890829889e+01
2.537345499323e+01
2.650981450605e+01
2.701259824698e+01
2.704135931175e+01
2.685068482100e+01
2.698982439964e+01
2.701215449165e+01
2.648460969904e+01
2.540470790300e+01
2.704096905264e+01
2.684881007047e+01
2.699489114505e+01
2.702052885114e+01
2.645444080878e+01
2.542867022177e+01
2.704260868695e+01
2.684900642663e+01
2.699006366066e+01
2.699104564770e+01
2.684950221820e+01
2.704066934852e+01
2.652857526564e+01
2.685080129031e+01
2.653169359945e+01
2.684659072026e+01
2.653071010379e+01
2.684273957383e+01
2.653460262032e+01
2.685599803876e+01
2.196044493086e+01
2.713051392155e+01
2.713201979944e+01
2.714021047699e+01
2.712915964758e+01
2.398848908278e+01
2.397766690483e+01
2.396532188296e+01
2.398720379552e+01
2.696186988420e+01
2.641576648308e+01
2.531328663465e+01
2.528758217801e+01
2.644467608617e+01
2.696248759578e+01
2.699217092558e+01
2.679443818682e+01
2.693926819156e+01
2.696206167846e+01
2.641902519553e+01
2.531903887345e+01
2.699169072448e+01
2.679253977621e+01
2.694449185226e+01
2.697069751032e+01
2.638827892372e+01
2.534299549206e+01
2.699340113484e+01
2.679275445471e+01
2.693945812740e+01
2.694047441295e+01
2.679323837343e+01
2.699147973541e+01
2.646148675040e+01
2.679501333390e+01
2.646471646663e+01
2.679056764796e+01
2.646372930112e+01
2.678675673041e+01
2.646770845075e+01
2.680041760846e+01
2.165775333463e+01
2.709097060895e+01
2.709251174796e+01
2.710072750392e+01
2.708995568106e+01
2.382510547022e+01
2.381433525646e+01
2.380634175934e+01
2.381596867966e+01
2.691331896870e+01
2.634383522987e+01
2.520959709218e+01
2.518382080766e+01
2.637345345387e+01
2.691393141886e+01
2.694489031199e+01
2.673657593017e+01
2.688990768086e+01
2.691351628627e+01
2.634711958263e+01
2.521530536008e+01
2.694427803704e+01
2.673462291263e+01
2.689537132542e+01
2.692255556716e+01
2.631550063962e+01
2.523879486746e+01
2.694607829201e+01
2.673485387565e+01
2.689005162526e+01
2.689111385873e+01
2.673533926871e+01
2.694417906824e+01
2.638761952808e+01
2.673794925852e+01
2.639104487013e+01
2.673314306563e+01
2.639009947701e+01
2.672937392870e+01
2.639418444662e+01
2.674364322283e+01
2.107577599927e+01
2.714916745692e+01
2.715071979175e+01
2.715886332904e+01
2.714893839356e+01
2.369562301041e+01
2.368496258622e+01
2.368222482626e+01
2.367701540884e+01
2.695557643105e+01
2.634461173728e+01
2.515899515354e+01
2.513287039079e+01
2.637537188739e+01
2.695621324243e+01
2.698979273795e+01
2.676262766513e+01
2.693108417946e+01
2.695577421702e+01
2.634790946718e+01
2.516450623758e+01
2.698888310555e+01
2.676059704164e+01
2.693695687900e+01
2.696551885281e+01
2.631486462621e+01
2.518751064819e+01
2.699085818258e+01
2.676088720045e+01
2.693109278410e+01
2.693224597805e+01
2.676134970423e+01
2.698907561969e+01
2.638402194182e+01
2.676501600782e+01
2.638776206738e+01
2.675957702316e+01
2.638687580724e+01
2.675592565189e+01
2.639116931913e+01
2.677128362273e+01
2.041607734131e+01
2.753381611045e+01
2.753521837605e+01
2.754420147883e+01
2.753311519735e+01
2.368338877501e+01
2.367323626286e+01
2.368084207120e+01
2.364657616267e+01
2.734173752209e+01
2.669808286333e+01
2.540011565245e+01
2.537315186799e+01
2.673157565225e+01
2.734292931012e+01
2.738239706502e+01
2.715631319047e+01
2.731897179248e+01
2.734166123382e+01
2.670182248207e+01
2.540673980485e+01
2.738128726718e+01
2.715407853715e+01
2.732502026560e+01
2.735180576460e+01
2.666633014538e+01
2.543013013000e+01
2.738315163866e+01
2.715448105538e+01
2.731894479442e+01
2.732014919265e+01
2.715492737779e+01
2.738155588567e+01
2.675477384938e+01
2.714929747930e+01
2.675878897063e+01
2.714465473317e+01
2.675843648178e+01
2.713947495343e+01
2.676281677209e+01
2.715577189564e+01
1.932234613875e+01
2.837681594958e+01
2.837768550900e+01
2.838347152145e+01
2.837580784980e+01
2.580352487085e+01
2.580231274266e+01
2.580380076503e+01
2.579364548904e+01
2.826547150812e+01
2.788387256997e+01
2.704075753492e+01
2.702296708101e+01
2.790608510040e+01
2.826562754842e+01
2.828873793434e+01
2.815983651026e+01
2.825207336420e+01
2.826549321642e+01
2.788647257019e+01
2.704691293119e+01
2.828840459104e+01
2.815843848001e+01
2.825563065356e+01
2.827230237945e+01
2.786309727863e+01
2.706332926270e+01
2.828955657473e+01
2.815878702833e+01
2.825216400328e+01
2.825284698981e+01
2.815906219851e+01
2.828829854393e+01
2.793289895956e+01
2.815455779682e+01
2.793494139992e+01
2.815225864986e+01
2.793422547655e+01
2.814869299130e+01
2.793729377836e+01
2.815825175720e+01
2.352143096161e+01
2.862257456122e+01
2.862322183956e+01
2.862642348423e+01
2.862273763995e+01
2.747759902108e+01
2.746823206729e+01
2.744186878187e+01
2.750855830988e+01
2.853895261653e+01
2.828413487114e+01
2.781906449643e+01
2.780533538280e+01
2.829639960493e+01
2.853920858991e+01
2.855275614660e+01
2.845407950326e+01
2.852844839081e+01
2.853917650214e+01
2.828534791598e+01
2.782081708533e+01
2.855241631064e+01
2.845336433721e+01
2.853089412214e+01
2.854299792451e+01
2.827200126514e+01
2.783486660616e+01
2.855340000822e+01
2.845351529739e+01
2.852830843669e+01
2.852884623185e+01
2.845362318889e+01
2.855259506516e+01
2.829351112538e+01
2.845689293750e+01
2.829485589130e+01
2.845437228238e+01
2.829399336024e+01
2.845333520725e+01
2.829597559709e+01
2.845970578771e+01
2.771274118128e+01
2.886256106708e+01
2.886307829529e+01
2.886419576717e+01
2.886344952043e+01
2.840003396811e+01
2.839543679099e+01
2.838701379450e+01
2.840698551822e+01
2.880467631872e+01
2.865858555671e+01
2.846798144453e+01
2.846238629105e+01
2.866341842729e+01
2.880469581027e+01
2.881007572187e+01
2.874118493729e+01
2.879682286410e+01
2.880493738786e+01
2.865883029749e+01
2.846716764555e+01
2.880975890502e+01
2.874090248362e+01
2.879834591067e+01
2.880687069065e+01
2.865298589827e+01
2.847161289716e+01
2.881041396103e+01
2.874084498153e+01
2.879665681462e+01
2.879699670927e+01
2.874090616772e+01
2.880996945338e+01
2.864427236702e+01
2.874988561443e+01
2.864528134013e+01
2.874742216788e+01
2.864487611610e+01
2.874801688084e+01
2.864574972607e+01
2.875166478903e+01
2.831891537461e+01
2.908547522584e+01
2.908585382198e+01
2.908604056172e+01
2.908633971560e+01
2.886646643823e+01
2.886538083014e+01
2.886349592766e+01
2.886764475357e+01
2.904877624292e+01
2.897250415148e+01
2.889447733225e+01
2.889233863560e+01
2.897446506653e+01
2.904840171227e+01
2.904928822119e+01
2.900642717006e+01
2.904342841211e+01
2.904904949608e+01
2.897247528460e+01
2.889386865974e+01
2.904917150551e+01
2.900633887933e+01
2.904430784820e+01
2.905028448596e+01
2.896969304236e+01
2.889499230781e+01
2.904962042479e+01
2.900627174455e+01
2.904333279555e+01
2.904350800053e+01
2.900630342594e+01
2.904926807148e+01
2.895764866207e+01
2.901579825098e+01
2.895817693096e+01
2.901395618643e+01
2.895774135177e+01
2.901492438674e+01
2.895824579830e+01
2.901677960739e+01
2.887054945037e+01
2.928314342681e+01
2.928341927873e+01
2.928349176840e+01
2.928352810509e+01
2.917884919695e+01
2.917830017823e+01
2.917718936526e+01
2.917975809136e+01
2.926248967475e+01
2.922485015148e+01
2.918952829644e+01
2.918849245198e+01
2.922576792040e+01
2.926211743387e+01
2.926142418326e+01
2.923768868761e+01
2.925898776670e+01
2.926269975491e+01
2.922481852970e+01
2.918927860624e+01
2.926146427215e+01
2.923765578653e+01
2.925946758003e+01
2.926339258966e+01
2.922338108328e+01
2.918979616062e+01
2.926172771337e+01
2.923758559336e+01
2.925898382364e+01
2.925906170757e+01
2.923761983464e+01
2.926141568796e+01
2.921567209186e+01
2.924460642946e+01
2.921592796883e+01
2.924348249083e+01
2.921556907814e+01
2.924418626777e+01
2.921585395578e+01
2.924506484188e+01
2.917517934295e+01
2.979646065211e+01
2.979649609859e+01
2.979650412049e+01
2.979636417418e+01
2.979873364362e+01
2.979875956140e+01
2.979881457155e+01
2.979865753051e+01
2.979648696603e+01
2.979723250407e+01
2.979833875944e+01
2.979834816536e+01
2.979719674496e+01
2.979644429451e+01
2.979622458900e+01
2.979627474953e+01
2.979634249572e+01
2.979650687140e+01
2.979723537787e+01
2.979834491368e+01
2.979627966964e+01
2.979629363578e+01
2.979635257641e+01
2.979646692316e+01