# vtk DataFile Version 3.0
Unstructured Grid from OpenGeoSys
ASCII
DATASET UNSTRUCTURED_GRID
FIELD TimesAndCycles 2
TIME 1 1 double
3.600000000000e+03
CYLCE 1 1 long
1
POINTS 1394 double
0.000000000000e+00 0.000000000000e+00 0.000000000000e+00
5.000000000000e+00 0.000000000000e+00 0.000000000000e+00
5.000000000000e+00 5.000000000000e+00 0.000000000000e+00
0.000000000000e+00 5.000000000000e+00 0.000000000000e+00
2.244234909000e+00 2.244234909000e+00 0.000000000000e+00
2.755765091000e+00 2.244234909000e+00 0.000000000000e+00
2.755765091000e+00 2.755765091000e+00 0.000000000000e+00
2.244234909000e+00 2.755765091000e+00 0.000000000000e+00
7.141316008320e-01 7.141316008320e-01 0.000000000000e+00
1.314642334730e+00 1.314642334730e+00 0.000000000000e+00
1.819609643610e+00 1.819609643610e+00 0.000000000000e+00
1.819609643610e+00 3.180390356390e+00 0.000000000000e+00
1.314642334740e+00 3.685357665260e+00 0.000000000000e+00
7.141316008360e-01 4.285868399160e+00 0.000000000000e+00
0.000000000000e+00 3.750000000000e+00 0.000000000000e+00
0.000000000000e+00 2.500000000000e+00 0.000000000000e+00
0.000000000000e+00 1.250000000000e+00 0.000000000000e+00
4.285868399170e+00 7.141316008320e-01 0.000000000000e+00
3.685357665270e+00 1.314642334730e+00 0.000000000000e+00
3.180390356390e+00 1.819609643610e+00 0.000000000000e+00
1.250000000000e+00 0.000000000000e+00 0.000000000000e+00
2.500000000000e+00 0.000000000000e+00 0.000000000000e+00
3.750000000000e+00 0.000000000000e+00 0.000000000000e+00
4.285868399170e+00 4.285868399170e+00 0.000000000000e+00
3.685357665270e+00 3.685357665270e+00 0.000000000000e+00
3.180390356390e+00 3.180390356390e+00 0.000000000000e+00
5.000000000000e+00 1.250000000000e+00 0.000000000000e+00
5.000000000000e+00 2.500000000000e+00 0.000000000000e+00
5.000000000000e+00 3.750000000000e+00 0.000000000000e+00
3.750000000000e+00 5.000000000000e+00 0.000000000000e+00
2.500000000000e+00 5.000000000000e+00 0.000000000000e+00
1.250000000000e+00 5.000000000000e+00 0.000000000000e+00
9.560744151940e-01 2.677827143250e+00 0.000000000000e+00
6.659597640160e-01 1.438876720610e+00 0.000000000000e+00
2.309219871940e+00 9.522638293400e-01 0.000000000000e+00
3.458157207860e+00 6.354750772000e-01 0.000000000000e+00
4.043925584810e+00 2.322172856750e+00 0.000000000000e+00
4.334040235980e+00 3.561123279390e+00 0.000000000000e+00
2.318530875810e+00 4.048536535600e+00 0.000000000000e+00
3.552396921680e+00 4.370927842320e+00 0.000000000000e+00
2.500000000000e+00 2.500000000000e+00 0.000000000000e+00
0.000000000000e+00 0.000000000000e+00 -5.000000000000e-01
5.000000000000e+00 0.000000000000e+00 -5.000000000000e-01
5.000000000000e+00 5.000000000000e+00 -5.000000000000e-01
0.000000000000e+00 5.000000000000e+00 -5.000000000000e-01
2.244234909000e+00 2.244234909000e+00 -5.000000000000e-01
2.755765091000e+00 2.244234909000e+00 -5.000000000000e-01
2.755765091000e+00 2.755765091000e+00 -5.000000000000e-01
2.244234909000e+00 2.755765091000e+00 -5.000000000000e-01
7.141316008320e-01 7.141316008320e-01 -5.000000000000e-01
1.314642334730e+00 1.314642334730e+00 -5.000000000000e-01
1.819609643610e+00 1.819609643610e+00 -5.000000000000e-01
1.819609643610e+00 3.180390356390e+00 -5.000000000000e-01
1.314642334740e+00 3.685357665260e+00 -5.000000000000e-01
7.141316008360e-01 4.285868399160e+00 -5.000000000000e-01
0.000000000000e+00 3.750000000000e+00 -5.000000000000e-01
0.000000000000e+00 2.500000000000e+00 -5.000000000000e-01
0.000000000000e+00 1.250000000000e+00 -5.000000000000e-01
4.285868399170e+00 7.141316008320e-01 -5.000000000000e-01
3.685357665270e+00 1.314642334730e+00 -5.000000000000e-01
3.180390356390e+00 1.819609643610e+00 -5.000000000000e-01
1.250000000000e+00 0.000000000000e+00 -5.000000000000e-01
2.500000000000e+00 0.000000000000e+00 -5.000000000000e-01
3.750000000000e+00 0.000000000000e+00 -5.000000000000e-01
4.285868399170e+00 4.285868399170e+00 -5.000000000000e-01
3.685357665270e+00 3.685357665270e+00 -5.000000000000e-01
3.180390356390e+00 3.180390356390e+00 -5.000000000000e-01
5.000000000000e+00 1.250000000000e+00 -5.000000000000e-01
5.000000000000e+00 2.500000000000e+00 -5.000000000000e-01
5.000000000000e+00 3.750000000000e+00 -5.000000000000e-01
3.750000000000e+00 5.000000000000e+00 -5.000000000000e-01
2.500000000000e+00 5.000000000000e+00 -5.000000000000e-01
1.250000000000e+00 5.000000000000e+00 -5.000000000000e-01
9.560744151940e-01 2.677827143250e+00 -5.000000000000e-01
6.659597640160e-01 1.438876720610e+00 -5.000000000000e-01
2.309219871940e+00 9.522638293400e-01 -5.000000000000e-01
3.458157207860e+00 6.354750772000e-01 -5.000000000000e-01
4.043925584810e+00 2.322172856750e+00 -5.000000000000e-01
4.334040235980e+00 3.561123279390e+00 -5.000000000000e-01
2.318530875810e+00 4.048536535600e+00 -5.000000000000e-01
3.552396921680e+00 4.370927842320e+00 -5.000000000000e-01
2.500000000000e+00 2.500000000000e+00 -5.000000000000e-01
0.000000000000e+00 0.000000000000e+00 -1.000000000000e+00
5.000000000000e+00 0.000000000000e+00 -1.000000000000e+00
5.000000000000e+00 5.000000000000e+00 -1.000000000000e+00
0.000000000000e+00 5.000000000000e+00 -1.000000000000e+00
2.244234909000e+00 2.244234909000e+00 -1.000000000000e+00
2.755765091000e+00 2.244234909000e+00 -1.000000000000e+00
2.755765091000e+00 2.755765091000e+00 -1.000000000000e+00
2.244234909000e+00 2.755765091000e+00 -1.000000000000e+00
7.141316008320e-01 7.141316008320e-01 -1.000000000000e+00
1.314642334730e+00 1.314642334730e+00 -1.000000000000e+00
1.819609643610e+00 1.819609643610e+00 -1.000000000000e+00
1.819609643610e+00 3.180390356390e+00 -1.000000000000e+00
1.314642334740e+00 3.685357665260e+00 -1.000000000000e+00
7.141316008360e-01 4.285868399160e+00 -1.000000000000e+00
0.000000000000e+00 3.750000000000e+00 -1.000000000000e+00
0.000000000000e+00 2.500000000000e+00 -1.000000000000e+00
0.000000000000e+00 1.250000000000e+00 -1.000000000000e+00
4.285868399170e+00 7.141316008320e-01 -1.000000000000e+00
3.685357665270e+00 1.314642334730e+00 -1.000000000000e+00
3.180390356390e+00 1.819609643610e+00 -1.000000000000e+00
1.250000000000e+00 0.000000000000e+00 -1.000000000000e+00
2.500000000000e+00 0.000000000000e+00 -1.000000000000e+00
3.750000000000e+00 0.000000000000e+00 -1.000000000000e+00
4.285868399170e+00 4.285868399170e+00 -1.000000000000e+00
3.685357665270e+00 3.685357665270e+00 -1.000000000000e+00
3.180390356390e+00 3.180390356390e+00 -1.000000000000e+00
5.000000000000e+00 1.250000000000e+00 -1.000000000000e+00
5.000000000000e+00 2.500000000000e+00 -1.000000000000e+00
5.000000000000e+00 3.750000000000e+00 -1.000000000000e+00
3.750000000000e+00 5.000000000000e+00 -1.000000000000e+00
2.500000000000e+00 5.000000000000e+00 -1.000000000000e+00
1.250000000000e+00 5.000000000000e+00 -1.000000000000e+00
9.560744151940e-01 2.677827143250e+00 -1.000000000000e+00
6.659597640160e-01 1.438876720610e+00 -1.000000000000e+00
2.309219871940e+00 9.522638293400e-01 -1.000000000000e+00
3.458157207860e+00 6.354750772000e-01 -1.000000000000e+00
4.043925584810e+00 2.322172856750e+00 -1.000000000000e+00
4.334040235980e+00 3.561123279390e+00 -1.000000000000e+00
2.318530875810e+00 4.048536535600e+00 -1.000000000000e+00
3.552396921680e+00 4.370927842320e+00 -1.000000000000e+00
2.500000000000e+00 2.500000000000e+00 -1.000000000000e+00
0.000000000000e+00 0.000000000000e+00 -3.000000000000e+00
5.000000000000e+00 0.000000000000e+00 -3.000000000000e+00
5.000000000000e+00 5.000000000000e+00 -3.000000000000e+00
0.000000000000e+00 5.000000000000e+00 -3.000000000000e+00
2.244234909000e+00 2.244234909000e+00 -3.000000000000e+00
2.755765091000e+00 2.244234909000e+00 -3.000000000000e+00
2.755765091000e+00 2.755765091000e+00 -3.000000000000e+00
2.244234909000e+00 2.755765091000e+00 -3.000000000000e+00
7.141316008320e-01 7.141316008320e-01 -3.000000000000e+00
1.314642334730e+00 1.314642334730e+00 -3.000000000000e+00
1.819609643610e+00 1.819609643610e+00 -3.000000000000e+00
1.819609643610e+00 3.180390356390e+00 -3.000000000000e+00
1.314642334740e+00 3.685357665260e+00 -3.000000000000e+00
7.141316008360e-01 4.285868399160e+00 -3.000000000000e+00
0.000000000000e+00 3.750000000000e+00 -3.000000000000e+00
0.000000000000e+00 2.500000000000e+00 -3.000000000000e+00
0.000000000000e+00 1.250000000000e+00 -3.000000000000e+00
4.285868399170e+00 7.141316008320e-01 -3.000000000000e+00
3.685357665270e+00 1.314642334730e+00 -3.000000000000e+00
3.180390356390e+00 1.819609643610e+00 -3.000000000000e+00
1.250000000000e+00 0.000000000000e+00 -3.000000000000e+00
2.500000000000e+00 0.000000000000e+00 -3.000000000000e+00
3.750000000000e+00 0.000000000000e+00 -3.000000000000e+00
4.285868399170e+00 4.285868399170e+00 -3.000000000000e+00
3.685357665270e+00 3.685357665270e+00 -3.000000000000e+00
3.180390356390e+00 3.180390356390e+00 -3.000000000000e+00
5.000000000000e+00 1.250000000000e+00 -3.000000000000e+00
5.000000000000e+00 2.500000000000e+00 -3.000000000000e+00
5.000000000000e+00 3.750000000000e+00 -3.000000000000e+00
3.750000000000e+00 5.000000000000e+00 -3.000000000000e+00
2.500000000000e+00 5.000000000000e+00 -3.000000000000e+00
1.250000000000e+00 5.000000000000e+00 -3.000000000000e+00
9.560744151940e-01 2.677827143250e+00 -3.000000000000e+00
6.659597640160e-01 1.438876720610e+00 -3.000000000000e+00
2.309219871940e+00 9.522638293400e-01 -3.000000000000e+00
3.458157207860e+00 6.354750772000e-01 -3.000000000000e+00
4.043925584810e+00 2.322172856750e+00 -3.000000000000e+00
4.334040235980e+00 3.561123279390e+00 -3.000000000000e+00
2.318530875810e+00 4.048536535600e+00 -3.000000000000e+00
3.552396921680e+00 4.370927842320e+00 -3.000000000000e+00
2.500000000000e+00 2.500000000000e+00 -3.000000000000e+00
0.000000000000e+00 0.000000000000e+00 -5.000000000000e+00
5.000000000000e+00 0.000000000000e+00 -5.000000000000e+00
5.000000000000e+00 5.000000000000e+00 -5.000000000000e+00
0.000000000000e+00 5.000000000000e+00 -5.000000000000e+00
2.244234909000e+00 2.244234909000e+00 -5.000000000000e+00
[...]
POINT_DATA 1394
SCALARS TEMPERATURE1 double 1
LOOKUP_TABLE default
1.000000000000e+01
1.000000000000e+01
1.000000000000e+01
1.000000000000e+01
1.000000000000e+01
1.000000000000e+01
1.000000000000e+01
1.000000000000e+01
1.000000000000e+01
1.000000000000e+01
1.000000000000e+01
1.000000000000e+01
1.000000000000e+01
1.000000000000e+01
1.000000000000e+01
1.000000000000e+01
1.000000000000e+01
1.000000000000e+01
1.000000000000e+01
1.000000000000e+01
1.000000000000e+01
1.000000000000e+01
1.000000000000e+01
1.000000000000e+01
1.000000000000e+01
1.000000000000e+01
1.000000000000e+01
1.000000000000e+01
1.000000000000e+01
1.000000000000e+01
1.000000000000e+01
1.000000000000e+01
1.000000000000e+01
1.000000000000e+01
1.000000000000e+01
1.000000000000e+01
1.000000000000e+01
1.000000000000e+01
1.000000000000e+01
1.000000000000e+01
1.000000000000e+01
1.933153796381e+01
1.933092362549e+01
1.933134154352e+01
1.933332596952e+01
1.846396841788e+01
1.846227510936e+01
1.844059117344e+01
1.849917992454e+01
1.930195380567e+01
1.914062137387e+01
1.879736035204e+01
1.878770223082e+01
1.914913433091e+01
1.930282136972e+01
1.932521268709e+01
1.928845504643e+01
1.930741102870e+01
1.930155697854e+01
1.914158417307e+01
1.879954750388e+01
1.932413421247e+01
1.928834076851e+01
1.930862449326e+01
1.930390082230e+01
1.913259411154e+01
1.881004506737e+01
1.932469580763e+01
1.928901493100e+01
1.930628409316e+01
1.930672295811e+01
1.928837106868e+01
1.932537461930e+01
1.916706815752e+01
1.926536222498e+01
1.916768904344e+01
1.926620480570e+01
1.916780866677e+01
1.926312300246e+01
1.916906467793e+01
1.926753658658e+01
1.929409737517e+01
2.717478205832e+01
2.717460677687e+01
2.718047011579e+01
2.717592657315e+01
2.294109679689e+01
2.295543668823e+01
2.297923096054e+01
2.291670427329e+01
2.704667181613e+01
2.654063042485e+01
2.527960807788e+01
2.525716453435e+01
2.657363130896e+01
2.704658215951e+01
2.708907030414e+01
2.694478513177e+01
2.704083172478e+01
2.704623913540e+01
2.654422837009e+01
2.529300824091e+01
2.708775193780e+01
2.694291776425e+01
2.704507686178e+01
2.705724038058e+01
2.650990755691e+01
2.531318059244e+01
2.708922006692e+01
2.694429429127e+01
2.704003858807e+01
2.704089199059e+01
2.694413168740e+01
2.708893197528e+01
2.664207070842e+01
2.691524844985e+01
2.664405152015e+01
2.691483044757e+01
2.664329921162e+01
2.690786471039e+01
2.664812758128e+01
2.692066699284e+01
1.714066207119e+01
2.967955272324e+01
2.967992180914e+01
2.968982485598e+01
2.967888667625e+01
2.456463476989e+01
2.458128764325e+01
2.462063700315e+01
2.451139463977e+01
2.951034137108e+01
2.883044275795e+01
2.727595963856e+01
2.724829113415e+01
2.887097107112e+01
2.951242748922e+01
2.956846831513e+01
2.936895873550e+01
2.949865604548e+01
2.950949431261e+01
2.883480074699e+01
2.728770441704e+01
2.956665055409e+01
2.936649806869e+01
2.950431954232e+01
2.952133325976e+01
2.879308051939e+01
2.730953123924e+01
2.956812850396e+01
2.936765361042e+01
2.949785608799e+01
2.949926959677e+01
2.936772651877e+01
2.956767430675e+01
2.894026143815e+01
2.933111539344e+01
2.894395454359e+01
2.932977463619e+01
2.894474021582e+01
2.932085686746e+01
2.894981182590e+01
2.933825947797e+01
1.754676483245e+01
3.003710096296e+01
3.003751490375e+01
3.004761160404e+01
3.003587763767e+01
2.513065989675e+01
2.514962312967e+01
2.520073196183e+01
2.505867324925e+01
2.987755904889e+01
2.921942278512e+01
2.774443098038e+01
2.771944467056e+01
2.925771103888e+01
2.988033990198e+01
2.993556987823e+01
2.974489645859e+01
2.986606450716e+01
2.987654840723e+01
2.922359176589e+01
2.775387990700e+01
2.993368929276e+01
2.974247154619e+01
2.987150974292e+01
2.988708107135e+01
2.918443808914e+01
2.777145018414e+01
2.993487634173e+01
2.974338638149e+01
2.986532372730e+01
2.986672183485e+01
2.974352935641e+01
2.993457706476e+01
2.932204835779e+01
2.970584303082e+01
2.932605891137e+01
2.970467229898e+01
2.932770687473e+01
2.969576552606e+01
2.933204275440e+01
2.971269891122e+01
1.790253197592e+01
3.002983296764e+01
3.003027371171e+01
3.004069736720e+01
3.002754455122e+01
2.541323777402e+01
2.543365268070e+01
2.549491270591e+01
2.532411991462e+01
2.988925794889e+01
2.927143865340e+01
2.789513962993e+01
2.787305389323e+01
2.930700640478e+01
2.989287181972e+01
2.994686413380e+01
2.977557478073e+01
2.987892058884e+01
2.988803427323e+01
2.927544443020e+01
2.790236704647e+01
2.994503878615e+01
2.977322230724e+01
2.988395075425e+01
2.989682010259e+01
2.923952304970e+01
2.791586321778e+01
2.994581708014e+01
2.977386569522e+01
2.987829684847e+01
2.987964870727e+01
2.977407806098e+01
2.994564522220e+01
2.937054742003e+01
2.973319313343e+01
2.937477599238e+01
2.973264135561e+01
2.937738205916e+01
2.972345622328e+01
2.938082320512e+01
2.973946505150e+01
1.812417391353e+01
3.004217802410e+01
3.004268897144e+01
3.005335147185e+01
3.003928830231e+01
2.566078955114e+01
2.568288803608e+01
2.575427127859e+01
2.555480774433e+01
2.991064021684e+01
2.931338127526e+01
2.801887820351e+01
2.799927684409e+01
2.934665181160e+01
2.991498484261e+01
2.996809627794e+01
2.980471289208e+01
2.990027726120e+01
2.990926075322e+01
2.931719327144e+01
2.802365685858e+01
2.996621571492e+01
2.980239993510e+01
2.990510887194e+01
2.991668495565e+01
2.928389003521e+01
2.803317258657e+01
2.996671035686e+01
2.980278544802e+01
2.989972111194e+01
2.990106641485e+01
2.980307427127e+01
2.996667060824e+01
2.940435114758e+01
2.976142391467e+01
2.940891557062e+01
2.976098461439e+01
2.941237665062e+01
2.975184725376e+01
2.941507234490e+01
2.976741797036e+01
1.829949898340e+01
3.003001073096e+01
3.003039177783e+01
3.004046785992e+01
3.002810853624e+01
2.542028289482e+01
2.543931740436e+01
2.549564045126e+01
2.533854056185e+01
2.988793808287e+01
2.927077899571e+01
2.788958226164e+01
2.786696937657e+01
2.930648563332e+01
2.989127523305e+01
2.994511971296e+01
2.977299168409e+01
2.987795933459e+01
2.988677674048e+01
2.927477586882e+01
2.789740481468e+01
2.994328853566e+01
2.977067305701e+01
2.988299878640e+01
2.989588063622e+01
2.923859219245e+01
2.791208126870e+01
2.994416511965e+01
2.977140592107e+01
2.987728558674e+01
2.987862097823e+01
2.977156772977e+01
2.994399983843e+01
2.937025761130e+01
2.973128072313e+01
2.937433055430e+01
2.973068209350e+01
2.937662503441e+01
2.972162355652e+01
2.938025587931e+01
2.973759542473e+01
1.829436550433e+01
3.003743172408e+01
3.003782508596e+01
3.004763382184e+01
3.003529572865e+01
2.576830245370e+01
2.578709870272e+01
2.584810124149e+01
2.567720833478e+01
2.990611798615e+01
2.932234053438e+01
2.804693290767e+01
2.802681585678e+01
2.935511967300e+01
2.990989698208e+01
2.996175951998e+01
2.980039494251e+01
2.989668066672e+01
2.990487189328e+01
2.932606630943e+01
2.805261297362e+01
2.995989883484e+01
2.979819400135e+01
2.990143328064e+01
2.991268106884e+01
2.929303786848e+01
2.806404088973e+01
2.996055871920e+01
2.979872909606e+01
2.989604594037e+01
2.989733410132e+01
2.979891712229e+01
2.996053687107e+01
2.941199655673e+01
2.975901534180e+01
2.941620208658e+01
2.975850966814e+01
2.941905270626e+01
2.974976175053e+01
2.942201390082e+01
2.976495592929e+01
1.885316964703e+01
3.003345823268e+01
3.003383714163e+01
3.004329540951e+01
3.003140132942e+01
2.596380582215e+01
2.598133994697e+01
2.604123748892e+01
2.587290797095e+01
2.990713474437e+01
2.934334290727e+01
2.812446615118e+01
2.810536251469e+01
2.937457863338e+01
2.991095147610e+01
2.996134758886e+01
2.980546826511e+01
2.989810322687e+01
2.990589557735e+01
2.934690885814e+01
2.812940039823e+01
2.995949290581e+01
2.980335502177e+01
2.990269694098e+01
2.991320194400e+01
2.931546494958e+01
2.813989756417e+01
2.996010027196e+01
2.980383496729e+01
2.989747546465e+01
2.989872646248e+01
2.980401304799e+01
2.996013403839e+01
2.942773733606e+01
2.976507541422e+01
2.943189602394e+01
2.976456931132e+01
2.943481547422e+01
2.975611038918e+01
2.943754136391e+01
2.977081678185e+01
1.929021726129e+01
3.001999113120e+01
3.002036076270e+01
3.002946156283e+01
3.001815274351e+01
2.609219817635e+01
2.610859148601e+01
2.616643161949e+01
2.600350919645e+01
2.989531601497e+01
2.934391692194e+01
2.816408199035e+01
2.814555319703e+01
2.937409536559e+01
2.989905556247e+01
2.994822383962e+01
2.979430218423e+01
2.988641067644e+01
2.989411518441e+01
2.934734974584e+01
2.816859361123e+01
2.994636689170e+01
2.979225852856e+01
2.989092019601e+01
2.990119757300e+01
2.931692501442e+01
2.817868757921e+01
2.994698217843e+01
2.979271938138e+01
2.988577339853e+01
2.988699958809e+01
2.979288249331e+01
2.994704597578e+01
2.942359037634e+01
2.975544649675e+01
2.942768482442e+01
2.975482946199e+01
2.943054387461e+01
2.974669921283e+01
2.943317271925e+01
2.976109371545e+01
1.964243834382e+01
3.000911128331e+01
3.000947122994e+01
3.001827191802e+01
3.000745890569e+01
2.619137603838e+01
2.620687279765e+01
2.626280315000e+01
2.610500282923e+01
2.988576049838e+01
2.934460161812e+01
2.819512243286e+01
2.817701679838e+01
2.937396559885e+01
2.988941198491e+01
2.993755086315e+01
2.978529182865e+01
2.987697646602e+01
2.988459611652e+01
2.934792879616e+01
2.819937016608e+01
2.993569871438e+01
2.978330534731e+01
2.988141561298e+01
2.989152816475e+01
2.931828078391e+01
2.820922346201e+01
2.993632577445e+01
2.978375742002e+01
2.987633077382e+01
2.987753570455e+01
2.978390646104e+01
2.993640842212e+01
2.942071540762e+01
2.974772135347e+01
2.942474159037e+01
2.974701946422e+01
2.942752550968e+01
2.973915797324e+01
2.943009433235e+01
2.975329109750e+01
1.992597149128e+01
3.000051133288e+01
3.000086304045e+01
3.000942386612e+01
2.999901069105e+01
2.626495250207e+01
2.627977343361e+01
2.633406214975e+01
2.618072394370e+01
2.987812459852e+01
2.934500368005e+01
2.821825960317e+01
2.820045369115e+01
2.937376370145e+01
2.988168901346e+01
2.992898927180e+01
2.977801187143e+01
2.986943094621e+01
2.987699287039e+01
2.934825005930e+01
2.822235317068e+01
2.992714551471e+01
2.977606963561e+01
2.987381493103e+01
2.988383085834e+01
2.931917154104e+01
2.823207599271e+01
2.992778579246e+01
2.977651895877e+01
2.986877922200e+01
2.986996659574e+01
2.977665666956e+01
2.992787872285e+01
2.941849432647e+01
2.974150310007e+01
2.942245698454e+01
2.974073443421e+01
2.942516371121e+01
2.973308760347e+01
2.942769903011e+01
2.974701251571e+01
2.014499144983e+01
2.999366043202e+01
2.999400335248e+01
3.000237242690e+01
2.999229919924e+01
2.630925617792e+01
2.632359394452e+01
2.637633680100e+01
2.622728886761e+01
2.987163269128e+01
2.934384907413e+01
2.823107696486e+01
2.821341005249e+01
2.937224586986e+01
2.987509842786e+01
2.992177966654e+01
2.977145637442e+01
2.986300128079e+01
2.987053274213e+01
2.934704051698e+01
2.823515647587e+01
2.991994558730e+01
2.976954585236e+01
2.986735049044e+01
2.987735709332e+01
2.931828544220e+01
2.824491555580e+01
2.992060689462e+01
2.977000323295e+01
2.986234209982e+01
2.986351630010e+01
2.977012980869e+01
2.992070167579e+01
2.941567633501e+01
2.973581573754e+01
2.941957619378e+01
2.973499103117e+01
2.942218959278e+01
2.972750903236e+01
2.942473034848e+01
2.974129073807e+01
2.029888492396e+01
2.998425297831e+01
2.998458206242e+01
2.999275806975e+01
2.998312241573e+01
2.630156960565e+01
2.631557031703e+01
2.636609930487e+01
2.622337983034e+01
2.986054368117e+01
2.933266577015e+01
2.821906832935e+01
2.820119236576e+01
2.936110645131e+01
2.986383033655e+01
2.991019619366e+01
2.975843316760e+01
2.985188998596e+01
2.985949249923e+01
2.933583201684e+01
2.822342744618e+01
2.990836548034e+01
2.975654127130e+01
2.985625365876e+01
2.986651325112e+01
2.930694252410e+01
2.823365539244e+01
2.990908857823e+01
2.975703919470e+01
2.985120664503e+01
2.985237607570e+01
2.975714590557e+01
2.990917134289e+01
2.940382305392e+01
2.972375368440e+01
2.940764148669e+01
2.972283219798e+01
2.941007079131e+01
2.971550072912e+01
2.941272205015e+01
2.972926670786e+01
2.037631734517e+01
2.995733021984e+01
2.995762481904e+01
2.996546375679e+01
2.995685393274e+01
2.615765430366e+01
2.617004657001e+01
2.621280617522e+01
2.609187767937e+01
2.982465283531e+01
2.928138626932e+01
2.812325367080e+01
2.810378815870e+01
2.931108033465e+01
2.982737149312e+01
2.987382437208e+01
2.971347955387e+01
2.981557550799e+01
2.982374614578e+01
2.928461700916e+01
2.812901422502e+01
2.987199609033e+01
2.971157292316e+01
2.982011424540e+01
2.983172911672e+01
2.925417808126e+01
2.814181581368e+01
2.987295714070e+01
2.971223905727e+01
2.981483464991e+01
2.981600753169e+01
2.971229727566e+01
2.987296092411e+01
2.935440441718e+01
2.968106678269e+01
2.935800888689e+01
2.967983523316e+01
2.935979174627e+01
2.967273917372e+01
2.936295906913e+01
2.968683006583e+01
2.037525665961e+01
2.994844140223e+01
2.994872804162e+01
2.995647815677e+01
2.994816695335e+01
2.610637714051e+01
2.611875480376e+01
2.616005491441e+01
2.604337612671e+01
2.981280165662e+01
2.926369912698e+01
2.809211048598e+01
2.807224828256e+01
2.929376634244e+01
2.981537916427e+01
2.986201639531e+01
2.969865103995e+01
2.980359444642e+01
2.981193057205e+01
2.926694372567e+01
2.809819718407e+01
2.986017430760e+01
2.969674052553e+01
2.980819412995e+01
2.982018569823e+01
2.923604134833e+01
2.811154727272e+01
2.986120199343e+01
2.969745079648e+01
2.980282464603e+01
2.980400563783e+01
2.969749231242e+01
2.986119227819e+01
2.933695139685e+01
2.966680265403e+01
2.934051759990e+01
2.966546878515e+01
2.934214913248e+01
2.965843699549e+01
2.934545432528e+01
2.967266128611e+01
2.033934289506e+01
2.993616824354e+01
2.993644226327e+01
2.994407397197e+01
2.993617191912e+01
2.602582584097e+01
2.603769960958e+01
2.607578055265e+01
2.596819853170e+01
2.979622229125e+01
2.923884088660e+01
2.804330185164e+01
2.802267233214e+01
2.926958141025e+01
2.979854614682e+01
2.984533527325e+01
2.967779557100e+01
2.978679737845e+01
2.979541371714e+01
2.924212822326e+01
2.805005562259e+01
2.984349451679e+01
2.967587206812e+01
2.979148592796e+01
2.980413037554e+01
2.921042006213e+01
2.806458309547e+01
2.984463032054e+01
2.967665976487e+01
2.978600182781e+01
2.978718766826e+01
2.967668066956e+01
2.984458045318e+01
2.931333597338e+01
2.964686349736e+01
2.931681243634e+01
2.964539403682e+01
2.931815724656e+01
2.963844225081e+01
2.932170643551e+01
2.965284682994e+01
2.030989515703e+01
2.991923412495e+01
2.991948562628e+01
2.992682729615e+01
2.991981315227e+01
2.593439543251e+01
2.594532513483e+01
2.597909593896e+01
2.588359430710e+01
2.977145056793e+01
2.920041392027e+01
2.797744890570e+01
2.795589262334e+01
2.923189680786e+01
2.977341229168e+01
2.982038226751e+01
2.964482590632e+01
2.976157267273e+01
2.977073867076e+01
2.920371554257e+01
2.798492283895e+01
2.981849444838e+01
2.964289372614e+01
2.976641741108e+01
2.978011343995e+01
2.917103180282e+01
2.800085057660e+01
2.981980443207e+01
2.964378831470e+01
2.976071745991e+01
2.976191326571e+01
2.964377421398e+01
2.981973266116e+01
2.927428443884e+01
2.961584679134e+01
2.927766889121e+01
2.961405493435e+01
2.927861626006e+01
2.960734772271e+01
2.928249512553e+01
2.962206036256e+01
2.026424994774e+01
2.991561778791e+01
2.991578102767e+01
2.992351895908e+01
2.991577009336e+01
2.574609649425e+01
2.575557425496e+01
2.578123747165e+01
2.570816221715e+01
2.977184122484e+01
2.919301862267e+01
2.789640435027e+01
2.787254227554e+01
2.922655322784e+01
2.977371437156e+01
2.982305061904e+01
2.965303228618e+01
2.976341640394e+01
2.977109716399e+01
2.919664268722e+01
2.790573341519e+01
2.982128747478e+01
2.965105448544e+01
2.976826134296e+01
2.978093906307e+01
2.916198872317e+01
2.792525185798e+01
2.982262965802e+01
2.965210164666e+01
2.976253873586e+01
2.976374408761e+01
2.965201989330e+01
2.982245835394e+01
2.928177997776e+01
2.961899592348e+01
2.928494635882e+01
2.961788545536e+01
2.928560680178e+01
2.961029230110e+01
2.928984468993e+01
2.962519721675e+01
2.024386737871e+01
2.996182629233e+01
2.996205080448e+01
2.996735931773e+01
2.996098737670e+01
2.705596264539e+01
2.707505333036e+01
2.713650495571e+01
2.696861285199e+01
2.988266811849e+01
2.953894054340e+01
2.875103870944e+01
2.874214747096e+01
2.955907743375e+01
2.988422631782e+01
2.991456989618e+01
2.981972455953e+01
2.987766344763e+01
2.988195530166e+01
2.954120613154e+01
2.875593871508e+01
2.991349239957e+01
2.981839379682e+01
2.988050702799e+01
2.988747161010e+01
2.952066673841e+01
2.875809800427e+01
2.991390270515e+01
2.981878656936e+01
2.987728648887e+01
2.987799276490e+01
2.981887558887e+01
2.991385178669e+01
2.959779078704e+01
2.979602619853e+01
2.960025810221e+01
2.979577350346e+01
2.960194085425e+01
2.979051262961e+01
2.960381095650e+01
2.979944394769e+01
2.097859746150e+01
2.997805072695e+01
2.997808103937e+01
2.998095098641e+01
2.997837924957e+01
2.891116153289e+01
2.890464589284e+01
2.887849510435e+01
2.894607979122e+01
2.992020580111e+01
2.969749364946e+01
2.925766657819e+01
2.924466116718e+01
2.970901226406e+01
2.992132768428e+01
2.993986498057e+01
2.986971328951e+01
2.991628419334e+01
2.992000333781e+01
2.969872681284e+01
2.925940643861e+01
2.993910056782e+01
2.986906639826e+01
2.991815294586e+01
2.992300706336e+01
2.968684971097e+01
2.927307652933e+01
2.993975352867e+01
2.986944662731e+01
2.991585372680e+01
2.991636372072e+01
2.986937267151e+01
2.993975993762e+01
2.971946811771e+01
2.985843141403e+01
2.972057139556e+01
2.985761714911e+01
2.972045810197e+01
2.985530126403e+01
2.972210764173e+01
2.986103860613e+01
2.987413803794e+01
2.999214556404e+01
2.999219220271e+01
2.999310760290e+01
2.999309443171e+01
2.962041575810e+01
2.961492933617e+01
2.960498746414e+01
2.962909848399e+01
2.995437624173e+01
2.983547571544e+01
2.966318864253e+01
2.965802019113e+01
2.983972916711e+01
2.995502702120e+01
2.996349754179e+01
2.991729966916e+01
2.995119444782e+01
2.995431764473e+01
2.983578690974e+01
2.966256753771e+01
2.996288237802e+01
2.991701844967e+01
2.995227205515e+01
2.995565370797e+01
2.983114425863e+01
2.966735083016e+01
2.996328181277e+01
2.991713991958e+01
2.995091518751e+01
2.995119127266e+01
2.991711509774e+01
2.996344064917e+01
2.983181790811e+01
2.991591430914e+01
2.983261247701e+01
2.991473254785e+01
2.983269872319e+01
2.991435899735e+01
2.983333357703e+01
2.991744480315e+01
2.940146306192e+01
3.000239250275e+01
3.000242343432e+01
3.000242503143e+01
3.000335134139e+01
2.983516731971e+01
2.983449817879e+01
2.983378677443e+01
2.983503787248e+01
2.998055222132e+01
2.992640033402e+01
2.986550578846e+01
2.986404771005e+01
2.992786152534e+01
2.998059719364e+01
2.998339331607e+01
2.995746978617e+01
2.997855945853e+01
2.998059105034e+01
2.992640691034e+01
2.986503788677e+01
2.998304987737e+01
2.995737210031e+01
2.997909145551e+01
2.998142774253e+01
2.992459442353e+01
2.986585328601e+01
2.998330172539e+01
2.995743633883e+01
2.997839698650e+01
2.997851642504e+01
2.995742119397e+01
2.998340940303e+01
2.991905331858e+01
2.995991579588e+01
2.991941214519e+01
2.995898290801e+01
2.991935205466e+01
2.995931585708e+01
2.991967499203e+01
2.996069811670e+01
2.986668116300e+01
3.000819654429e+01
3.000822215377e+01
3.000815897714e+01
3.000867838308e+01
2.994900353658e+01
2.994863153186e+01
2.994780681997e+01
2.994982444260e+01
2.999795009048e+01
2.997669355449e+01
2.995521431283e+01
2.995463298480e+01
2.997723287244e+01
2.999786412042e+01
2.999834417039e+01
2.998653349487e+01
2.999676074481e+01
2.999799855603e+01
2.997667927099e+01
2.995507369058e+01
2.999821798005e+01
2.998648707665e+01
2.999698524277e+01
2.999842977830e+01
2.997596666806e+01
2.995546582616e+01
2.999834568638e+01
2.998651654907e+01
2.999672036480e+01
2.999675689707e+01
2.998652779303e+01
2.999836957028e+01
2.997257710076e+01
2.998882408766e+01
2.997269128464e+01
2.998831779412e+01
2.997257351205e+01
2.998862170427e+01
2.997274658059e+01
2.998914376305e+01
2.994391350610e+01
3.000547742787e+01
3.000547381472e+01
3.000548493495e+01
3.000542093061e+01
3.001257066255e+01
3.001262056593e+01
3.001274913266e+01
3.001242659476e+01
3.000666309971e+01
3.000923024848e+01
3.001189792008e+01
3.001197234955e+01
3.000916567194e+01
3.000667367025e+01
3.000658650342e+01
3.000795866140e+01
3.000678305494e+01
3.000665702651e+01
3.000923144010e+01
3.001191378282e+01
3.000660077503e+01
3.000796227896e+01
3.000675539328e+01
3.000660816570e+01