# vtk DataFile Version 3.0
Unstructured Grid from OpenGeoSys
ASCII
DATASET UNSTRUCTURED_GRID
FIELD TimesAndCycles 2
TIME 1 1 double
3.600000000000e+03
CYLCE 1 1 long
1
POINTS 1394 double
0.000000000000e+00 0.000000000000e+00 0.000000000000e+00
5.000000000000e+00 0.000000000000e+00 0.000000000000e+00
5.000000000000e+00 5.000000000000e+00 0.000000000000e+00
0.000000000000e+00 5.000000000000e+00 0.000000000000e+00
2.244234909000e+00 2.244234909000e+00 0.000000000000e+00
2.755765091000e+00 2.244234909000e+00 0.000000000000e+00
2.755765091000e+00 2.755765091000e+00 0.000000000000e+00
2.244234909000e+00 2.755765091000e+00 0.000000000000e+00
7.141316008320e-01 7.141316008320e-01 0.000000000000e+00
1.314642334730e+00 1.314642334730e+00 0.000000000000e+00
1.819609643610e+00 1.819609643610e+00 0.000000000000e+00
1.819609643610e+00 3.180390356390e+00 0.000000000000e+00
1.314642334740e+00 3.685357665260e+00 0.000000000000e+00
7.141316008360e-01 4.285868399160e+00 0.000000000000e+00
0.000000000000e+00 3.750000000000e+00 0.000000000000e+00
0.000000000000e+00 2.500000000000e+00 0.000000000000e+00
0.000000000000e+00 1.250000000000e+00 0.000000000000e+00
4.285868399170e+00 7.141316008320e-01 0.000000000000e+00
3.685357665270e+00 1.314642334730e+00 0.000000000000e+00
3.180390356390e+00 1.819609643610e+00 0.000000000000e+00
1.250000000000e+00 0.000000000000e+00 0.000000000000e+00
2.500000000000e+00 0.000000000000e+00 0.000000000000e+00
3.750000000000e+00 0.000000000000e+00 0.000000000000e+00
4.285868399170e+00 4.285868399170e+00 0.000000000000e+00
3.685357665270e+00 3.685357665270e+00 0.000000000000e+00
3.180390356390e+00 3.180390356390e+00 0.000000000000e+00
5.000000000000e+00 1.250000000000e+00 0.000000000000e+00
5.000000000000e+00 2.500000000000e+00 0.000000000000e+00
5.000000000000e+00 3.750000000000e+00 0.000000000000e+00
3.750000000000e+00 5.000000000000e+00 0.000000000000e+00
2.500000000000e+00 5.000000000000e+00 0.000000000000e+00
1.250000000000e+00 5.000000000000e+00 0.000000000000e+00
9.560744151940e-01 2.677827143250e+00 0.000000000000e+00
6.659597640160e-01 1.438876720610e+00 0.000000000000e+00
2.309219871940e+00 9.522638293400e-01 0.000000000000e+00
3.458157207860e+00 6.354750772000e-01 0.000000000000e+00
4.043925584810e+00 2.322172856750e+00 0.000000000000e+00
4.334040235980e+00 3.561123279390e+00 0.000000000000e+00
2.318530875810e+00 4.048536535600e+00 0.000000000000e+00
3.552396921680e+00 4.370927842320e+00 0.000000000000e+00
2.500000000000e+00 2.500000000000e+00 0.000000000000e+00
0.000000000000e+00 0.000000000000e+00 -5.000000000000e-01
5.000000000000e+00 0.000000000000e+00 -5.000000000000e-01
5.000000000000e+00 5.000000000000e+00 -5.000000000000e-01
0.000000000000e+00 5.000000000000e+00 -5.000000000000e-01
2.244234909000e+00 2.244234909000e+00 -5.000000000000e-01
2.755765091000e+00 2.244234909000e+00 -5.000000000000e-01
2.755765091000e+00 2.755765091000e+00 -5.000000000000e-01
2.244234909000e+00 2.755765091000e+00 -5.000000000000e-01
7.141316008320e-01 7.141316008320e-01 -5.000000000000e-01
1.314642334730e+00 1.314642334730e+00 -5.000000000000e-01
1.819609643610e+00 1.819609643610e+00 -5.000000000000e-01
1.819609643610e+00 3.180390356390e+00 -5.000000000000e-01
1.314642334740e+00 3.685357665260e+00 -5.000000000000e-01
7.141316008360e-01 4.285868399160e+00 -5.000000000000e-01
0.000000000000e+00 3.750000000000e+00 -5.000000000000e-01
0.000000000000e+00 2.500000000000e+00 -5.000000000000e-01
0.000000000000e+00 1.250000000000e+00 -5.000000000000e-01
4.285868399170e+00 7.141316008320e-01 -5.000000000000e-01
3.685357665270e+00 1.314642334730e+00 -5.000000000000e-01
3.180390356390e+00 1.819609643610e+00 -5.000000000000e-01
1.250000000000e+00 0.000000000000e+00 -5.000000000000e-01
2.500000000000e+00 0.000000000000e+00 -5.000000000000e-01
3.750000000000e+00 0.000000000000e+00 -5.000000000000e-01
4.285868399170e+00 4.285868399170e+00 -5.000000000000e-01
3.685357665270e+00 3.685357665270e+00 -5.000000000000e-01
3.180390356390e+00 3.180390356390e+00 -5.000000000000e-01
5.000000000000e+00 1.250000000000e+00 -5.000000000000e-01
5.000000000000e+00 2.500000000000e+00 -5.000000000000e-01
5.000000000000e+00 3.750000000000e+00 -5.000000000000e-01
3.750000000000e+00 5.000000000000e+00 -5.000000000000e-01
2.500000000000e+00 5.000000000000e+00 -5.000000000000e-01
1.250000000000e+00 5.000000000000e+00 -5.000000000000e-01
9.560744151940e-01 2.677827143250e+00 -5.000000000000e-01
6.659597640160e-01 1.438876720610e+00 -5.000000000000e-01
2.309219871940e+00 9.522638293400e-01 -5.000000000000e-01
3.458157207860e+00 6.354750772000e-01 -5.000000000000e-01
4.043925584810e+00 2.322172856750e+00 -5.000000000000e-01
4.334040235980e+00 3.561123279390e+00 -5.000000000000e-01
2.318530875810e+00 4.048536535600e+00 -5.000000000000e-01
3.552396921680e+00 4.370927842320e+00 -5.000000000000e-01
2.500000000000e+00 2.500000000000e+00 -5.000000000000e-01
0.000000000000e+00 0.000000000000e+00 -1.000000000000e+00
5.000000000000e+00 0.000000000000e+00 -1.000000000000e+00
5.000000000000e+00 5.000000000000e+00 -1.000000000000e+00
0.000000000000e+00 5.000000000000e+00 -1.000000000000e+00
2.244234909000e+00 2.244234909000e+00 -1.000000000000e+00
2.755765091000e+00 2.244234909000e+00 -1.000000000000e+00
2.755765091000e+00 2.755765091000e+00 -1.000000000000e+00
2.244234909000e+00 2.755765091000e+00 -1.000000000000e+00
7.141316008320e-01 7.141316008320e-01 -1.000000000000e+00
1.314642334730e+00 1.314642334730e+00 -1.000000000000e+00
1.819609643610e+00 1.819609643610e+00 -1.000000000000e+00
1.819609643610e+00 3.180390356390e+00 -1.000000000000e+00
1.314642334740e+00 3.685357665260e+00 -1.000000000000e+00
7.141316008360e-01 4.285868399160e+00 -1.000000000000e+00
0.000000000000e+00 3.750000000000e+00 -1.000000000000e+00
0.000000000000e+00 2.500000000000e+00 -1.000000000000e+00
0.000000000000e+00 1.250000000000e+00 -1.000000000000e+00
4.285868399170e+00 7.141316008320e-01 -1.000000000000e+00
3.685357665270e+00 1.314642334730e+00 -1.000000000000e+00
3.180390356390e+00 1.819609643610e+00 -1.000000000000e+00
1.250000000000e+00 0.000000000000e+00 -1.000000000000e+00
2.500000000000e+00 0.000000000000e+00 -1.000000000000e+00
3.750000000000e+00 0.000000000000e+00 -1.000000000000e+00
4.285868399170e+00 4.285868399170e+00 -1.000000000000e+00
3.685357665270e+00 3.685357665270e+00 -1.000000000000e+00
3.180390356390e+00 3.180390356390e+00 -1.000000000000e+00
5.000000000000e+00 1.250000000000e+00 -1.000000000000e+00
5.000000000000e+00 2.500000000000e+00 -1.000000000000e+00
5.000000000000e+00 3.750000000000e+00 -1.000000000000e+00
3.750000000000e+00 5.000000000000e+00 -1.000000000000e+00
2.500000000000e+00 5.000000000000e+00 -1.000000000000e+00
1.250000000000e+00 5.000000000000e+00 -1.000000000000e+00
9.560744151940e-01 2.677827143250e+00 -1.000000000000e+00
6.659597640160e-01 1.438876720610e+00 -1.000000000000e+00
2.309219871940e+00 9.522638293400e-01 -1.000000000000e+00
3.458157207860e+00 6.354750772000e-01 -1.000000000000e+00
4.043925584810e+00 2.322172856750e+00 -1.000000000000e+00
4.334040235980e+00 3.561123279390e+00 -1.000000000000e+00
2.318530875810e+00 4.048536535600e+00 -1.000000000000e+00
3.552396921680e+00 4.370927842320e+00 -1.000000000000e+00
2.500000000000e+00 2.500000000000e+00 -1.000000000000e+00
0.000000000000e+00 0.000000000000e+00 -3.000000000000e+00
5.000000000000e+00 0.000000000000e+00 -3.000000000000e+00
5.000000000000e+00 5.000000000000e+00 -3.000000000000e+00
0.000000000000e+00 5.000000000000e+00 -3.000000000000e+00
2.244234909000e+00 2.244234909000e+00 -3.000000000000e+00
2.755765091000e+00 2.244234909000e+00 -3.000000000000e+00
2.755765091000e+00 2.755765091000e+00 -3.000000000000e+00
2.244234909000e+00 2.755765091000e+00 -3.000000000000e+00
7.141316008320e-01 7.141316008320e-01 -3.000000000000e+00
1.314642334730e+00 1.314642334730e+00 -3.000000000000e+00
1.819609643610e+00 1.819609643610e+00 -3.000000000000e+00
1.819609643610e+00 3.180390356390e+00 -3.000000000000e+00
1.314642334740e+00 3.685357665260e+00 -3.000000000000e+00
7.141316008360e-01 4.285868399160e+00 -3.000000000000e+00
0.000000000000e+00 3.750000000000e+00 -3.000000000000e+00
0.000000000000e+00 2.500000000000e+00 -3.000000000000e+00
0.000000000000e+00 1.250000000000e+00 -3.000000000000e+00
4.285868399170e+00 7.141316008320e-01 -3.000000000000e+00
3.685357665270e+00 1.314642334730e+00 -3.000000000000e+00
3.180390356390e+00 1.819609643610e+00 -3.000000000000e+00
1.250000000000e+00 0.000000000000e+00 -3.000000000000e+00
2.500000000000e+00 0.000000000000e+00 -3.000000000000e+00
3.750000000000e+00 0.000000000000e+00 -3.000000000000e+00
4.285868399170e+00 4.285868399170e+00 -3.000000000000e+00
3.685357665270e+00 3.685357665270e+00 -3.000000000000e+00
3.180390356390e+00 3.180390356390e+00 -3.000000000000e+00
5.000000000000e+00 1.250000000000e+00 -3.000000000000e+00
5.000000000000e+00 2.500000000000e+00 -3.000000000000e+00
5.000000000000e+00 3.750000000000e+00 -3.000000000000e+00
3.750000000000e+00 5.000000000000e+00 -3.000000000000e+00
2.500000000000e+00 5.000000000000e+00 -3.000000000000e+00
1.250000000000e+00 5.000000000000e+00 -3.000000000000e+00
9.560744151940e-01 2.677827143250e+00 -3.000000000000e+00
6.659597640160e-01 1.438876720610e+00 -3.000000000000e+00
2.309219871940e+00 9.522638293400e-01 -3.000000000000e+00
3.458157207860e+00 6.354750772000e-01 -3.000000000000e+00
4.043925584810e+00 2.322172856750e+00 -3.000000000000e+00
4.334040235980e+00 3.561123279390e+00 -3.000000000000e+00
2.318530875810e+00 4.048536535600e+00 -3.000000000000e+00
3.552396921680e+00 4.370927842320e+00 -3.000000000000e+00
2.500000000000e+00 2.500000000000e+00 -3.000000000000e+00
0.000000000000e+00 0.000000000000e+00 -5.000000000000e+00
5.000000000000e+00 0.000000000000e+00 -5.000000000000e+00
5.000000000000e+00 5.000000000000e+00 -5.000000000000e+00
0.000000000000e+00 5.000000000000e+00 -5.000000000000e+00
2.244234909000e+00 2.244234909000e+00 -5.000000000000e+00
[...]
POINT_DATA 1394
SCALARS TEMPERATURE1 double 1
LOOKUP_TABLE default
1.000000000000e+01
1.000000000000e+01
1.000000000000e+01
1.000000000000e+01
1.000000000000e+01
1.000000000000e+01
1.000000000000e+01
1.000000000000e+01
1.000000000000e+01
1.000000000000e+01
1.000000000000e+01
1.000000000000e+01
1.000000000000e+01
1.000000000000e+01
1.000000000000e+01
1.000000000000e+01
1.000000000000e+01
1.000000000000e+01
1.000000000000e+01
1.000000000000e+01
1.000000000000e+01
1.000000000000e+01
1.000000000000e+01
1.000000000000e+01
1.000000000000e+01
1.000000000000e+01
1.000000000000e+01
1.000000000000e+01
1.000000000000e+01
1.000000000000e+01
1.000000000000e+01
1.000000000000e+01
1.000000000000e+01
1.000000000000e+01
1.000000000000e+01
1.000000000000e+01
1.000000000000e+01
1.000000000000e+01
1.000000000000e+01
1.000000000000e+01
1.000000000000e+01
1.801362852681e+01
1.801303934294e+01
1.800894637516e+01
1.800832363933e+01
2.110056963090e+01
2.111109726171e+01
2.119199668351e+01
2.097452558902e+01
1.822937575862e+01
1.888789065064e+01
2.008305512841e+01
2.011876850396e+01
1.885652976196e+01
1.822990795303e+01
1.818447838027e+01
1.843675625234e+01
1.824451414208e+01
1.822880073508e+01
1.888528516439e+01
2.007626367684e+01
1.818640326052e+01
1.843785536089e+01
1.823842278806e+01
1.821706093684e+01
1.892046978380e+01
2.003917365749e+01
1.818325465242e+01
1.843652102197e+01
1.824647804308e+01
1.824488352479e+01
1.843727326567e+01
1.818410422836e+01
1.886584809538e+01
1.844124833084e+01
1.886332814803e+01
1.844696041077e+01
1.886644070264e+01
1.844958633810e+01
1.886034944490e+01
1.843287743509e+01
1.909097823641e+01
2.641850760470e+01
2.641635128918e+01
2.639961884078e+01
2.641706993540e+01
3.607893290624e+01
3.607547124708e+01
3.599770596112e+01
3.622809771984e+01
2.682856092636e+01
2.825885613775e+01
3.125625109488e+01
3.130839740457e+01
2.818251752210e+01
2.682692735703e+01
2.672449139507e+01
2.720435526422e+01
2.686408448714e+01
2.682905984918e+01
2.825080479087e+01
3.123607396187e+01
2.672769759553e+01
2.720875528937e+01
2.685091129347e+01
2.680432850289e+01
2.833266697007e+01
3.119581310336e+01
2.672344793284e+01
2.720704028458e+01
2.686559751824e+01
2.686273364091e+01
2.720704858071e+01
2.672603300688e+01
2.810542905684e+01
2.724356664725e+01
2.809685436268e+01
2.725142006422e+01
2.809707728012e+01
2.726533861727e+01
2.808696598450e+01
2.722874624659e+01
4.969718299327e+01
3.104583851756e+01
3.104326349475e+01
3.102626039658e+01
3.104352349015e+01
4.013006069357e+01
4.012463979942e+01
4.008022607383e+01
4.022146295640e+01
3.149008583167e+01
3.300103369933e+01
3.592728537152e+01
3.598431665335e+01
3.292639716489e+01
3.148712804220e+01
3.138001036120e+01
3.190788219625e+01
3.153000097226e+01
3.149051272673e+01
3.299342051552e+01
3.591436463439e+01
3.138378168135e+01
3.191194994767e+01
3.151599650896e+01
3.146715291942e+01
3.307414397651e+01
3.587115173893e+01
3.137918002404e+01
3.191062119153e+01
3.153216221409e+01
3.152882817526e+01
3.191083773364e+01
3.138171531536e+01
3.289092695319e+01
3.194150571103e+01
3.288132883378e+01
3.195152884745e+01
3.288099699562e+01
3.196396764395e+01
3.287123501702e+01
3.192519068795e+01
5.068383937290e+01
3.380895776682e+01
3.380644364902e+01
3.379209457399e+01
3.380614322838e+01
4.192051607298e+01
4.191682417601e+01
4.188127493832e+01
4.199441241579e+01
3.421932236365e+01
3.556883956591e+01
3.816984235914e+01
3.822069090821e+01
3.550244355234e+01
3.421784836562e+01
3.412641494262e+01
3.461097449678e+01
3.425735080461e+01
3.421929816390e+01
3.556231402806e+01
3.815708485759e+01
3.412948750655e+01
3.461447143471e+01
3.424467129998e+01
3.419753407765e+01
3.563490805391e+01
3.811807434268e+01
3.412504683168e+01
3.461325410434e+01
3.425930533297e+01
3.425634850539e+01
3.461349796530e+01
3.412775376522e+01
3.547979825352e+01
3.463095617592e+01
3.547148946393e+01
3.464088338086e+01
3.547219215810e+01
3.465076811229e+01
3.546303304772e+01
3.461629883929e+01
5.130289767564e+01
3.534758920782e+01
3.534525327777e+01
3.533212864184e+01
3.534432364497e+01
4.306171178669e+01
4.305607810872e+01
4.302832737477e+01
4.311746626647e+01
3.574119479712e+01
3.702755337718e+01
3.950075292429e+01
3.954983969119e+01
3.696432832443e+01
3.574012796315e+01
3.565266616575e+01
3.611686549107e+01
3.577668461711e+01
3.574107764065e+01
3.702144264814e+01
3.948829237209e+01
3.565561150983e+01
3.612006017070e+01
3.576459982044e+01
3.572005416416e+01
3.709083835648e+01
3.945026081312e+01
3.565124242301e+01
3.611880651506e+01
3.577876206598e+01
3.577591088280e+01
3.611918324592e+01
3.565381608163e+01
3.694523443177e+01
3.613523255286e+01
3.693749187434e+01
3.614478521344e+01
3.693849230275e+01
3.615393451607e+01
3.692955920312e+01
3.612109883633e+01
5.162991576142e+01
3.615688480183e+01
3.615471905922e+01
3.614260171711e+01
3.615295069541e+01
4.368513478638e+01
4.367798740063e+01
4.365697535157e+01
4.372494433544e+01
3.654261064764e+01
3.779385125162e+01
4.020284814832e+01
4.025120231447e+01
3.773216885350e+01
3.654202739571e+01
3.645662005989e+01
3.691038707366e+01
3.657610705902e+01
3.654238460562e+01
3.778803952409e+01
4.018985887306e+01
3.645952044135e+01
3.691337429345e+01
3.656436992580e+01
3.652140404839e+01
3.785601244421e+01
4.015178969866e+01
3.645510411734e+01
3.691199613198e+01
3.657834982290e+01
3.657554682606e+01
3.691250672004e+01
3.645756608809e+01
3.771479739437e+01
3.692756979194e+01
3.770754063441e+01
3.693692778369e+01
3.770897054253e+01
3.694553892150e+01
3.769995359446e+01
3.691362933907e+01
5.178085653557e+01
3.654708964357e+01
3.654485644413e+01
3.653232507050e+01
3.654440331034e+01
4.376435770882e+01
4.375971817248e+01
4.373335175598e+01
4.381837967964e+01
3.691348122187e+01
3.811403515120e+01
4.043043170151e+01
4.047640880810e+01
3.805479416981e+01
3.691242836366e+01
3.683112266213e+01
3.726328113209e+01
3.694706811540e+01
3.691338139406e+01
3.810825228892e+01
4.041874169961e+01
3.683378802049e+01
3.726630545639e+01
3.693578166056e+01
3.689384097663e+01
3.817318083918e+01
4.038302988911e+01
3.682975057067e+01
3.726517851900e+01
3.694891679809e+01
3.694627100637e+01
3.726548372428e+01
3.683224096813e+01
3.803509968253e+01
3.728047975646e+01
3.802783412932e+01
3.728933426552e+01
3.802872694138e+01
3.729800773864e+01
3.802042674906e+01
3.726737604082e+01
5.181766190213e+01
3.686729858189e+01
3.686520351849e+01
3.685368995244e+01
3.686357911688e+01
4.398692045970e+01
4.398089313590e+01
4.396198051457e+01
4.402390169793e+01
3.723459279875e+01
3.842018171183e+01
4.070116455164e+01
4.074708399010e+01
3.836173985981e+01
3.723413588903e+01
3.715412547030e+01
3.758586829774e+01
3.726704767592e+01
3.723433676036e+01
3.841467578490e+01
4.068882151679e+01
3.715683126745e+01
3.758872383087e+01
3.725590316975e+01
3.721438189693e+01
3.847909663326e+01
4.065251156879e+01
3.715262318158e+01
3.758743281214e+01
3.726910923721e+01
3.726646853232e+01
3.758787559978e+01
3.715501531435e+01
3.834637463169e+01
3.760044040209e+01
3.833951625036e+01
3.760947209344e+01
3.834097713071e+01
3.761745277716e+01
3.833239240057e+01
3.758724499054e+01
5.160697436419e+01
3.670365241645e+01
3.670159336973e+01
3.669032104879e+01
3.669963322288e+01
4.380718648990e+01
4.380073549467e+01
4.378250025257e+01
4.384206880887e+01
3.707202126400e+01
3.825634350315e+01
4.052976816546e+01
4.057556654220e+01
3.819809114763e+01
3.707167323288e+01
3.699183285841e+01
3.742456466389e+01
3.710430475770e+01
3.707173992852e+01
3.825090198260e+01
4.051739134313e+01
3.699458379796e+01
3.742739305724e+01
3.709317122535e+01
3.705167584726e+01
3.831519665600e+01
4.048117548552e+01
3.699033600007e+01
3.742606652819e+01
3.710641596112e+01
3.710377476517e+01
3.742653413879e+01
3.699267711014e+01
3.818433500346e+01
3.743844845722e+01
3.817753417252e+01
3.744757005838e+01
3.817908403923e+01
3.745537231518e+01
3.817044679114e+01
3.742520084071e+01
5.136634573310e+01
3.642722579398e+01
3.642520346822e+01
3.641398933355e+01
3.642313924510e+01
4.352710745376e+01
4.352061588957e+01
4.350201416918e+01
4.356248513361e+01
3.679453958303e+01
3.797631177595e+01
4.024707907329e+01
4.029273630643e+01
3.791813136913e+01
3.679418842632e+01
3.671434054844e+01
3.714574083257e+01
3.682655816480e+01
3.679427225858e+01
3.797087823860e+01
4.023464340855e+01
3.671711838381e+01
3.714857431739e+01
3.681545934055e+01
3.677420157472e+01
3.803506481800e+01
4.019852453423e+01
3.671288162704e+01
3.714722864414e+01
3.682867087697e+01
3.682603919154e+01
3.714769514090e+01
3.671517253489e+01
3.790387893567e+01
3.715993857639e+01
3.789710914709e+01
3.716900699634e+01
3.789865001888e+01
3.717681756284e+01
3.789001350926e+01
3.714670655528e+01
5.110523105604e+01
3.615047521228e+01
3.614847787547e+01
3.613726746566e+01
3.614636977771e+01
4.325487189024e+01
4.324841565650e+01
4.322923790952e+01
4.329129955364e+01
3.651702411156e+01
3.769761875186e+01
3.996868147904e+01
4.001424566612e+01
3.763943531303e+01
3.651665222498e+01
3.643674487943e+01
3.686720027474e+01
3.654888742962e+01
3.651677329843e+01
3.769217861080e+01
3.995619819236e+01
3.643954347604e+01
3.687004747489e+01
3.653780886399e+01
3.649669724160e+01
3.775632786668e+01
3.992015272413e+01
3.643532030012e+01
3.686869020074e+01
3.655099152363e+01
3.654836740184e+01
3.686914892003e+01
3.643757448285e+01
3.762454288674e+01
3.688173366732e+01
3.761778476969e+01
3.689075512941e+01
3.761930260746e+01
3.689859929593e+01
3.761066985439e+01
3.686851403860e+01
5.087109759031e+01
3.591367206838e+01
3.591169425880e+01
3.590046833578e+01
3.590958024297e+01
4.302143828635e+01
4.301504249232e+01
4.299528373434e+01
4.305898269967e+01
3.627929437853e+01
3.745845782127e+01
3.972968865996e+01
3.977516335226e+01
3.740027320034e+01
3.627889608350e+01
3.619896193578e+01
3.662830438085e+01
3.631102712799e+01
3.627906031322e+01
3.745300757875e+01
3.971716523997e+01
3.620177280453e+01
3.663116566234e+01
3.629997028660e+01
3.625899522143e+01
3.751711365822e+01
3.968118977089e+01
3.619756705213e+01
3.662980171416e+01
3.631311732713e+01
3.631050132126e+01
3.663025054423e+01
3.619979312650e+01
3.738464581167e+01
3.664318326688e+01
3.737789647533e+01
3.665215096849e+01
3.737938645696e+01
3.666003782082e+01
3.737076420329e+01
3.662998537717e+01
5.067554944302e+01
3.570819734391e+01
3.570623158354e+01
3.569496478700e+01
3.570415091543e+01
4.282084534380e+01
4.281453825889e+01
4.279416633465e+01
4.285963418167e+01
3.607291966965e+01
3.725089793180e+01
3.952300621289e+01
3.956841023656e+01
3.719269230228e+01
3.607248966695e+01
3.599254523258e+01
3.642082646068e+01
3.610457565428e+01
3.607270196861e+01
3.724543211206e+01
3.951044873991e+01
3.599536051410e+01
3.642370392276e+01
3.609353682833e+01
3.605265594239e+01
3.730951340241e+01
3.947453073092e+01
3.599117421268e+01
3.642233844791e+01
3.610664620455e+01
3.610403793765e+01
3.642277445636e+01
3.599338271394e+01
3.717626453597e+01
3.643603345827e+01
3.716951756592e+01
3.644494807983e+01
3.717097571137e+01
3.645288640463e+01
3.716236750263e+01
3.642286143979e+01
5.051622333966e+01
3.545849025187e+01
3.545652201361e+01
3.544512416845e+01
3.545455868020e+01
4.259652232988e+01
4.259043673827e+01
4.256914604967e+01
4.263738374638e+01
3.582288143538e+01
3.700249863131e+01
3.928248206527e+01
3.932793398546e+01
3.694409275922e+01
3.582239496315e+01
3.574227448316e+01
3.617020509279e+01
3.585460864441e+01
3.582268515593e+01
3.699698793573e+01
3.926986207378e+01
3.574508743005e+01
3.617311540683e+01
3.584356082970e+01
3.580263633629e+01
3.706121793086e+01
3.923390679120e+01
3.574092191292e+01
3.617175483215e+01
3.585664584654e+01
3.585404152323e+01
3.617216883289e+01
3.574313186546e+01
3.692640559504e+01
3.618587406817e+01
3.691963247869e+01
3.619473770572e+01
3.692104208216e+01
3.620278416712e+01
3.691244099334e+01
3.617271512674e+01
5.037285562699e+01
3.507836499598e+01
3.507636469472e+01
3.506449621321e+01
3.507495379265e+01
4.225813568949e+01
4.225270561665e+01
4.222794992166e+01
4.230675209758e+01
3.544000704391e+01
3.662079888120e+01
3.891455895642e+01
3.895993309528e+01
3.656205915433e+01
3.543926319267e+01
3.535885626426e+01
3.578400917069e+01
3.547200127631e+01
3.543989303556e+01
3.661515230795e+01
3.890203730024e+01
3.536163598132e+01
3.578701187399e+01
3.546095592116e+01
3.542004136158e+01
3.667951004628e+01
3.886630225942e+01
3.535757532570e+01
3.578570939137e+01
3.547390975612e+01
3.547132350282e+01
3.578604386433e+01
3.535980659081e+01
3.654076614024e+01
3.580120843658e+01
3.653387570881e+01
3.580987614973e+01
3.653504188707e+01
3.581827701654e+01
3.652656525908e+01
3.578816352644e+01
5.025130929708e+01
3.501083216053e+01
3.500883802408e+01
3.499689215810e+01
3.500755980230e+01
4.217594892387e+01
4.217091691360e+01
4.214569099356e+01
4.222604475313e+01
3.537037227421e+01
3.654745290350e+01
3.883776746027e+01
3.888301225758e+01
3.648881007253e+01
3.536955890539e+01
3.528927241693e+01
3.571206753513e+01
3.540225299019e+01
3.537028200812e+01
3.654178975008e+01
3.882527796136e+01
3.529203822492e+01
3.571508419187e+01
3.539124880200e+01
3.535054445692e+01
3.660597438705e+01
3.878962406716e+01
3.528801764863e+01
3.571379499793e+01
3.540412511758e+01
3.540155202121e+01
3.571411030448e+01
3.529023984981e+01
3.646644410875e+01
3.572976601575e+01
3.645955396307e+01
3.573833569561e+01
3.646065865249e+01
3.574681730688e+01
3.645223639225e+01
3.571679290952e+01
5.019763683541e+01
3.491169719796e+01
3.490969098366e+01
3.489751498278e+01
3.490874960038e+01
4.207478644192e+01
4.207011241550e+01
4.204363820750e+01
4.212784813391e+01
3.526793903943e+01
3.643987985191e+01
3.872990065217e+01
3.877500132135e+01
3.638122622852e+01
3.526701530112e+01
3.518700987688e+01
3.560607080712e+01
3.529981961049e+01
3.526788724901e+01
3.643415864578e+01
3.871739699886e+01
3.518972924763e+01
3.560912882702e+01
3.528887472129e+01
3.524830526658e+01
3.649821062613e+01
3.868183570617e+01
3.518577957774e+01
3.560786889973e+01
3.530160435710e+01
3.529905140080e+01
3.560813470531e+01
3.518801720851e+01
3.635644954801e+01
3.562450263425e+01
3.634955670361e+01
3.563291111469e+01
3.635056178343e+01
3.564155470145e+01
3.634221345444e+01
3.561165713926e+01
5.015483397484e+01
3.464705256993e+01
3.464502235317e+01
3.463271022694e+01
3.464405024946e+01
4.181035020031e+01
4.180621384806e+01
4.177674339201e+01
4.186988266347e+01
3.500613722985e+01
3.618422262060e+01
3.847329876869e+01
3.851804928222e+01
3.612563863950e+01
3.500506503890e+01
3.492515167950e+01
3.534787590652e+01
3.503874508601e+01
3.500611329621e+01
3.617851842269e+01
3.846123280023e+01
3.492796084874e+01
3.535100379115e+01
3.502773886856e+01
3.498654186571e+01
3.624243751010e+01
3.842634087890e+01
3.492402629570e+01
3.534977471232e+01
3.504046748691e+01
3.503790692552e+01
3.534996791609e+01
3.492619963944e+01
3.610322989151e+01
3.536540493417e+01
3.609621898409e+01
3.537402879457e+01
3.609708242580e+01
3.538255270302e+01
3.608878738095e+01
3.535248631813e+01
5.007419524422e+01
3.389323485325e+01
3.389150191842e+01
3.387780841781e+01
3.389098923633e+01
4.147970077807e+01
4.147770544056e+01
4.145197757531e+01
4.153691358851e+01
3.424831842784e+01
3.547589954720e+01
3.793051181958e+01
3.797913836482e+01
3.541308469930e+01
3.424622444293e+01
3.415675751426e+01
3.457643634270e+01
3.427792214483e+01
3.424870988640e+01
3.546945465622e+01
3.791712798510e+01
3.415988320808e+01
3.457983849590e+01
3.426668914718e+01
3.422877201137e+01
3.553703816537e+01
3.787766424326e+01
3.415606804593e+01
3.457839608284e+01
3.427975380212e+01
3.427709368508e+01
3.457865232971e+01
3.415791889166e+01
3.536857056553e+01
3.460956803845e+01
3.536129583042e+01
3.461685882412e+01
3.536157185482e+01
3.462773828002e+01
3.535302644257e+01
3.459625286526e+01
4.988457449834e+01
3.240931061286e+01
3.240827414740e+01
3.239963209827e+01
3.240759175383e+01
3.861240177741e+01
3.858621413653e+01
3.851271188742e+01
3.871352867536e+01
3.264094783230e+01
3.345452885145e+01
3.523218312141e+01
3.525923059746e+01
3.340886689989e+01
3.264108516235e+01
3.257989236939e+01
3.284819985262e+01
3.265731484287e+01
3.264122024347e+01
3.344993319842e+01
3.521775550376e+01
3.258173484921e+01
3.285052084248e+01
3.264995027865e+01
3.262553046459e+01
3.349921227111e+01
3.520021703092e+01
3.257923547161e+01
3.284923918834e+01
3.265866421724e+01
3.265694671283e+01
3.284955319831e+01
3.258062765519e+01
3.335372280708e+01
3.287461423408e+01
3.334922740127e+01
3.287845275591e+01
3.334950892089e+01
3.288676574678e+01
3.334322775823e+01
3.286597820667e+01
4.858200387837e+01
3.197500105787e+01
3.197418957487e+01
3.196895633547e+01
3.197268451636e+01
3.450926717047e+01
3.452508246271e+01
3.458228306297e+01
3.443493846822e+01
3.215058527783e+01
3.271092475232e+01
3.372182516105e+01
3.375108284919e+01
3.268471589905e+01
3.214984512292e+01
3.211190143649e+01
3.232027422566e+01
3.216601706480e+01
3.215032582640e+01
3.270847413382e+01
3.371789767803e+01
3.211332381046e+01
3.232147001744e+01
3.216079161020e+01
3.214182245886e+01
3.273732377180e+01
3.368828095218e+01
3.211106125711e+01
3.232075637357e+01
3.216716573034e+01
3.216585885520e+01
3.232106632099e+01
3.211202296516e+01
3.268912328299e+01
3.232629691380e+01
3.268630227569e+01
3.233087926259e+01
3.268787915289e+01
3.233394818964e+01
3.268352047959e+01
3.231967538760e+01
3.304979308397e+01
3.154669759862e+01
3.154588728849e+01
3.154392767012e+01
3.154412060173e+01
3.254113499166e+01
3.255295515939e+01
3.257415282408e+01
3.252355735868e+01
3.166792300618e+01
3.199486871773e+01
3.242360294739e+01
3.243620672319e+01
3.198430588727e+01
3.166743248376e+01
3.165046316344e+01
3.179609100637e+01
3.168136690099e+01
3.166755765086e+01
3.199428632223e+01
3.242559687606e+01
3.165153795750e+01
3.179661114477e+01
3.167805992041e+01
3.166350447838e+01
3.200698256871e+01
3.241524830399e+01
3.165011175095e+01
3.179656949287e+01
3.168206266367e+01
3.168126664164e+01
3.179665950564e+01
3.165063979626e+01
3.202241118339e+01
3.178539768926e+01
3.202014129008e+01
3.179013380060e+01
3.202068303656e+01
3.178963465150e+01
3.201885324278e+01
3.178129689794e+01
3.290105626127e+01
3.114571778048e+01
3.114505116082e+01
3.114478956395e+01
3.114361158680e+01
3.164385478788e+01
3.164619295395e+01
3.164977839232e+01
3.164222621212e+01
3.122218889934e+01
3.139109903051e+01
3.157010891335e+01
3.157479055435e+01
3.138671677586e+01
3.122276324041e+01
3.121830334058e+01
3.130820050683e+01
3.123199802464e+01
3.122171017928e+01
3.139112103133e+01
3.157147141714e+01
3.121873658477e+01
3.130836565568e+01
3.123011627203e+01
3.121909895754e+01
3.139720609298e+01
3.156901552929e+01
3.121778752794e+01
3.130843096976e+01
3.123234804122e+01
3.123194264063e+01
3.130845485946e+01
3.121833341303e+01
3.142045734457e+01
3.129215430550e+01
3.141927768567e+01
3.129579109205e+01
3.142000981884e+01
3.129412805516e+01
3.141895845818e+01
3.128993447073e+01
3.160049137975e+01
3.078931417748e+01
3.078877913574e+01
3.078864678388e+01
3.078843939178e+01
3.101188626863e+01
3.101311627951e+01
3.101570602684e+01
3.100963011365e+01
3.083190631905e+01
3.091184626814e+01
3.098868635983e+01
3.099091946751e+01
3.090986740059e+01
3.083261906373e+01
3.083343630543e+01
3.088252338391e+01
3.083880804837e+01
3.083149590587e+01
3.091190266958e+01
3.098921051323e+01
3.083340396891e+01
3.088258999957e+01
3.083781247537e+01
3.083004632284e+01
3.091493936691e+01
3.098802946395e+01
3.083285553008e+01
3.088270908556e+01
3.083884764568e+01
3.083867565257e+01
3.088265756952e+01
3.083344653167e+01
3.093036293592e+01
3.086907536752e+01
3.092982794723e+01
3.087134887668e+01
3.093053393740e+01
3.086997196631e+01
3.092993561284e+01
3.086808294279e+01
3.102337048580e+01
2.988346224221e+01
2.988338376673e+01
2.988336206219e+01
2.988368169671e+01
2.987709775896e+01
2.987702131873e+01
2.987683442547e+01
2.987735210842e+01
2.988341264806e+01
2.988135308651e+01
2.987816168498e+01
2.987811992413e+01
2.988144598051e+01
2.988351251604e+01
2.988410892777e+01
2.988398407639e+01
2.988378862484e+01
2.988336744397e+01
2.988134830352e+01
2.987814551473e+01
2.988398220001e+01
2.988394320844e+01
2.988376986208e+01
2.988345622916e+01