# vtk DataFile Version 3.0
Unstructured Grid from OpenGeoSys
ASCII
DATASET UNSTRUCTURED_GRID
FIELD TimesAndCycles 2
TIME 1 1 double
3.600000000000e+03
CYLCE 1 1 long
1
POINTS 1394 double
0.000000000000e+00 0.000000000000e+00 0.000000000000e+00
5.000000000000e+00 0.000000000000e+00 0.000000000000e+00
5.000000000000e+00 5.000000000000e+00 0.000000000000e+00
0.000000000000e+00 5.000000000000e+00 0.000000000000e+00
2.244234909000e+00 2.244234909000e+00 0.000000000000e+00
2.755765091000e+00 2.244234909000e+00 0.000000000000e+00
2.755765091000e+00 2.755765091000e+00 0.000000000000e+00
2.244234909000e+00 2.755765091000e+00 0.000000000000e+00
7.141316008320e-01 7.141316008320e-01 0.000000000000e+00
1.314642334730e+00 1.314642334730e+00 0.000000000000e+00
1.819609643610e+00 1.819609643610e+00 0.000000000000e+00
1.819609643610e+00 3.180390356390e+00 0.000000000000e+00
1.314642334740e+00 3.685357665260e+00 0.000000000000e+00
7.141316008360e-01 4.285868399160e+00 0.000000000000e+00
0.000000000000e+00 3.750000000000e+00 0.000000000000e+00
0.000000000000e+00 2.500000000000e+00 0.000000000000e+00
0.000000000000e+00 1.250000000000e+00 0.000000000000e+00
4.285868399170e+00 7.141316008320e-01 0.000000000000e+00
3.685357665270e+00 1.314642334730e+00 0.000000000000e+00
3.180390356390e+00 1.819609643610e+00 0.000000000000e+00
1.250000000000e+00 0.000000000000e+00 0.000000000000e+00
2.500000000000e+00 0.000000000000e+00 0.000000000000e+00
3.750000000000e+00 0.000000000000e+00 0.000000000000e+00
4.285868399170e+00 4.285868399170e+00 0.000000000000e+00
3.685357665270e+00 3.685357665270e+00 0.000000000000e+00
3.180390356390e+00 3.180390356390e+00 0.000000000000e+00
5.000000000000e+00 1.250000000000e+00 0.000000000000e+00
5.000000000000e+00 2.500000000000e+00 0.000000000000e+00
5.000000000000e+00 3.750000000000e+00 0.000000000000e+00
3.750000000000e+00 5.000000000000e+00 0.000000000000e+00
2.500000000000e+00 5.000000000000e+00 0.000000000000e+00
1.250000000000e+00 5.000000000000e+00 0.000000000000e+00
9.560744151940e-01 2.677827143250e+00 0.000000000000e+00
6.659597640160e-01 1.438876720610e+00 0.000000000000e+00
2.309219871940e+00 9.522638293400e-01 0.000000000000e+00
3.458157207860e+00 6.354750772000e-01 0.000000000000e+00
4.043925584810e+00 2.322172856750e+00 0.000000000000e+00
4.334040235980e+00 3.561123279390e+00 0.000000000000e+00
2.318530875810e+00 4.048536535600e+00 0.000000000000e+00
3.552396921680e+00 4.370927842320e+00 0.000000000000e+00
2.500000000000e+00 2.500000000000e+00 0.000000000000e+00
0.000000000000e+00 0.000000000000e+00 -5.000000000000e-01
5.000000000000e+00 0.000000000000e+00 -5.000000000000e-01
5.000000000000e+00 5.000000000000e+00 -5.000000000000e-01
0.000000000000e+00 5.000000000000e+00 -5.000000000000e-01
2.244234909000e+00 2.244234909000e+00 -5.000000000000e-01
2.755765091000e+00 2.244234909000e+00 -5.000000000000e-01
2.755765091000e+00 2.755765091000e+00 -5.000000000000e-01
2.244234909000e+00 2.755765091000e+00 -5.000000000000e-01
7.141316008320e-01 7.141316008320e-01 -5.000000000000e-01
1.314642334730e+00 1.314642334730e+00 -5.000000000000e-01
1.819609643610e+00 1.819609643610e+00 -5.000000000000e-01
1.819609643610e+00 3.180390356390e+00 -5.000000000000e-01
1.314642334740e+00 3.685357665260e+00 -5.000000000000e-01
7.141316008360e-01 4.285868399160e+00 -5.000000000000e-01
0.000000000000e+00 3.750000000000e+00 -5.000000000000e-01
0.000000000000e+00 2.500000000000e+00 -5.000000000000e-01
0.000000000000e+00 1.250000000000e+00 -5.000000000000e-01
4.285868399170e+00 7.141316008320e-01 -5.000000000000e-01
3.685357665270e+00 1.314642334730e+00 -5.000000000000e-01
3.180390356390e+00 1.819609643610e+00 -5.000000000000e-01
1.250000000000e+00 0.000000000000e+00 -5.000000000000e-01
2.500000000000e+00 0.000000000000e+00 -5.000000000000e-01
3.750000000000e+00 0.000000000000e+00 -5.000000000000e-01
4.285868399170e+00 4.285868399170e+00 -5.000000000000e-01
3.685357665270e+00 3.685357665270e+00 -5.000000000000e-01
3.180390356390e+00 3.180390356390e+00 -5.000000000000e-01
5.000000000000e+00 1.250000000000e+00 -5.000000000000e-01
5.000000000000e+00 2.500000000000e+00 -5.000000000000e-01
5.000000000000e+00 3.750000000000e+00 -5.000000000000e-01
3.750000000000e+00 5.000000000000e+00 -5.000000000000e-01
2.500000000000e+00 5.000000000000e+00 -5.000000000000e-01
1.250000000000e+00 5.000000000000e+00 -5.000000000000e-01
9.560744151940e-01 2.677827143250e+00 -5.000000000000e-01
6.659597640160e-01 1.438876720610e+00 -5.000000000000e-01
2.309219871940e+00 9.522638293400e-01 -5.000000000000e-01
3.458157207860e+00 6.354750772000e-01 -5.000000000000e-01
4.043925584810e+00 2.322172856750e+00 -5.000000000000e-01
4.334040235980e+00 3.561123279390e+00 -5.000000000000e-01
2.318530875810e+00 4.048536535600e+00 -5.000000000000e-01
3.552396921680e+00 4.370927842320e+00 -5.000000000000e-01
2.500000000000e+00 2.500000000000e+00 -5.000000000000e-01
0.000000000000e+00 0.000000000000e+00 -1.000000000000e+00
5.000000000000e+00 0.000000000000e+00 -1.000000000000e+00
5.000000000000e+00 5.000000000000e+00 -1.000000000000e+00
0.000000000000e+00 5.000000000000e+00 -1.000000000000e+00
2.244234909000e+00 2.244234909000e+00 -1.000000000000e+00
2.755765091000e+00 2.244234909000e+00 -1.000000000000e+00
2.755765091000e+00 2.755765091000e+00 -1.000000000000e+00
2.244234909000e+00 2.755765091000e+00 -1.000000000000e+00
7.141316008320e-01 7.141316008320e-01 -1.000000000000e+00
1.314642334730e+00 1.314642334730e+00 -1.000000000000e+00
1.819609643610e+00 1.819609643610e+00 -1.000000000000e+00
1.819609643610e+00 3.180390356390e+00 -1.000000000000e+00
1.314642334740e+00 3.685357665260e+00 -1.000000000000e+00
7.141316008360e-01 4.285868399160e+00 -1.000000000000e+00
0.000000000000e+00 3.750000000000e+00 -1.000000000000e+00
0.000000000000e+00 2.500000000000e+00 -1.000000000000e+00
0.000000000000e+00 1.250000000000e+00 -1.000000000000e+00
4.285868399170e+00 7.141316008320e-01 -1.000000000000e+00
3.685357665270e+00 1.314642334730e+00 -1.000000000000e+00
3.180390356390e+00 1.819609643610e+00 -1.000000000000e+00
1.250000000000e+00 0.000000000000e+00 -1.000000000000e+00
2.500000000000e+00 0.000000000000e+00 -1.000000000000e+00
3.750000000000e+00 0.000000000000e+00 -1.000000000000e+00
4.285868399170e+00 4.285868399170e+00 -1.000000000000e+00
3.685357665270e+00 3.685357665270e+00 -1.000000000000e+00
3.180390356390e+00 3.180390356390e+00 -1.000000000000e+00
5.000000000000e+00 1.250000000000e+00 -1.000000000000e+00
5.000000000000e+00 2.500000000000e+00 -1.000000000000e+00
5.000000000000e+00 3.750000000000e+00 -1.000000000000e+00
3.750000000000e+00 5.000000000000e+00 -1.000000000000e+00
2.500000000000e+00 5.000000000000e+00 -1.000000000000e+00
1.250000000000e+00 5.000000000000e+00 -1.000000000000e+00
9.560744151940e-01 2.677827143250e+00 -1.000000000000e+00
6.659597640160e-01 1.438876720610e+00 -1.000000000000e+00
2.309219871940e+00 9.522638293400e-01 -1.000000000000e+00
3.458157207860e+00 6.354750772000e-01 -1.000000000000e+00
4.043925584810e+00 2.322172856750e+00 -1.000000000000e+00
4.334040235980e+00 3.561123279390e+00 -1.000000000000e+00
2.318530875810e+00 4.048536535600e+00 -1.000000000000e+00
3.552396921680e+00 4.370927842320e+00 -1.000000000000e+00
2.500000000000e+00 2.500000000000e+00 -1.000000000000e+00
0.000000000000e+00 0.000000000000e+00 -3.000000000000e+00
5.000000000000e+00 0.000000000000e+00 -3.000000000000e+00
5.000000000000e+00 5.000000000000e+00 -3.000000000000e+00
0.000000000000e+00 5.000000000000e+00 -3.000000000000e+00
2.244234909000e+00 2.244234909000e+00 -3.000000000000e+00
2.755765091000e+00 2.244234909000e+00 -3.000000000000e+00
2.755765091000e+00 2.755765091000e+00 -3.000000000000e+00
2.244234909000e+00 2.755765091000e+00 -3.000000000000e+00
7.141316008320e-01 7.141316008320e-01 -3.000000000000e+00
1.314642334730e+00 1.314642334730e+00 -3.000000000000e+00
1.819609643610e+00 1.819609643610e+00 -3.000000000000e+00
1.819609643610e+00 3.180390356390e+00 -3.000000000000e+00
1.314642334740e+00 3.685357665260e+00 -3.000000000000e+00
7.141316008360e-01 4.285868399160e+00 -3.000000000000e+00
0.000000000000e+00 3.750000000000e+00 -3.000000000000e+00
0.000000000000e+00 2.500000000000e+00 -3.000000000000e+00
0.000000000000e+00 1.250000000000e+00 -3.000000000000e+00
4.285868399170e+00 7.141316008320e-01 -3.000000000000e+00
3.685357665270e+00 1.314642334730e+00 -3.000000000000e+00
3.180390356390e+00 1.819609643610e+00 -3.000000000000e+00
1.250000000000e+00 0.000000000000e+00 -3.000000000000e+00
2.500000000000e+00 0.000000000000e+00 -3.000000000000e+00
3.750000000000e+00 0.000000000000e+00 -3.000000000000e+00
4.285868399170e+00 4.285868399170e+00 -3.000000000000e+00
3.685357665270e+00 3.685357665270e+00 -3.000000000000e+00
3.180390356390e+00 3.180390356390e+00 -3.000000000000e+00
5.000000000000e+00 1.250000000000e+00 -3.000000000000e+00
5.000000000000e+00 2.500000000000e+00 -3.000000000000e+00
5.000000000000e+00 3.750000000000e+00 -3.000000000000e+00
3.750000000000e+00 5.000000000000e+00 -3.000000000000e+00
2.500000000000e+00 5.000000000000e+00 -3.000000000000e+00
1.250000000000e+00 5.000000000000e+00 -3.000000000000e+00
9.560744151940e-01 2.677827143250e+00 -3.000000000000e+00
6.659597640160e-01 1.438876720610e+00 -3.000000000000e+00
2.309219871940e+00 9.522638293400e-01 -3.000000000000e+00
3.458157207860e+00 6.354750772000e-01 -3.000000000000e+00
4.043925584810e+00 2.322172856750e+00 -3.000000000000e+00
4.334040235980e+00 3.561123279390e+00 -3.000000000000e+00
2.318530875810e+00 4.048536535600e+00 -3.000000000000e+00
3.552396921680e+00 4.370927842320e+00 -3.000000000000e+00
2.500000000000e+00 2.500000000000e+00 -3.000000000000e+00
0.000000000000e+00 0.000000000000e+00 -5.000000000000e+00
5.000000000000e+00 0.000000000000e+00 -5.000000000000e+00
5.000000000000e+00 5.000000000000e+00 -5.000000000000e+00
0.000000000000e+00 5.000000000000e+00 -5.000000000000e+00
2.244234909000e+00 2.244234909000e+00 -5.000000000000e+00
[...]
POINT_DATA 1394
SCALARS TEMPERATURE1 double 1
LOOKUP_TABLE default
1.000000000000e+01
1.000000000000e+01
1.000000000000e+01
1.000000000000e+01
1.000000000000e+01
1.000000000000e+01
1.000000000000e+01
1.000000000000e+01
1.000000000000e+01
1.000000000000e+01
1.000000000000e+01
1.000000000000e+01
1.000000000000e+01
1.000000000000e+01
1.000000000000e+01
1.000000000000e+01
1.000000000000e+01
1.000000000000e+01
1.000000000000e+01
1.000000000000e+01
1.000000000000e+01
1.000000000000e+01
1.000000000000e+01
1.000000000000e+01
1.000000000000e+01
1.000000000000e+01
1.000000000000e+01
1.000000000000e+01
1.000000000000e+01
1.000000000000e+01
1.000000000000e+01
1.000000000000e+01
1.000000000000e+01
1.000000000000e+01
1.000000000000e+01
1.000000000000e+01
1.000000000000e+01
1.000000000000e+01
1.000000000000e+01
1.000000000000e+01
1.000000000000e+01
1.921929304595e+01
1.921823099204e+01
1.921095732237e+01
1.921452160502e+01
2.301633716586e+01
2.304121113897e+01
2.313040153887e+01
2.290029312190e+01
1.949357198986e+01
2.036151312095e+01
2.188892291944e+01
2.193335998518e+01
2.032209191878e+01
1.949234780323e+01
1.943232313030e+01
1.975827660526e+01
1.951602303302e+01
1.949321356204e+01
2.035796458132e+01
2.188365017095e+01
1.943491591960e+01
1.976004010440e+01
1.950796044709e+01
1.948001074621e+01
2.040154776386e+01
2.183882905462e+01
1.943133287901e+01
1.975882209051e+01
1.951803466503e+01
1.951596627964e+01
1.975939955922e+01
1.943240541740e+01
2.033625677675e+01
1.976789490905e+01
2.033191044528e+01
1.977522888503e+01
2.033427101431e+01
1.977957462993e+01
2.032754467704e+01
1.975737135646e+01
2.109677144792e+01
2.889441686628e+01
2.889240030411e+01
2.887910998530e+01
2.888443692056e+01
4.028881419645e+01
4.025136723762e+01
4.018301197979e+01
4.036988583067e+01
2.943157226697e+01
3.116167585160e+01
3.459033808210e+01
3.465240055343e+01
3.107377322764e+01
2.943291010133e+01
2.930875875787e+01
2.993319159824e+01
2.946878302367e+01
2.943127309340e+01
3.115385090375e+01
3.456665300043e+01
2.931364495703e+01
2.993712451699e+01
2.945279639908e+01
2.939847468811e+01
3.125123518191e+01
3.452107497652e+01
2.930711367648e+01
2.993422068326e+01
2.947287467940e+01
2.946898734412e+01
2.993549320494e+01
2.930940688552e+01
3.103630980872e+01
2.996323181006e+01
3.102730167207e+01
2.997550177194e+01
3.103008170053e+01
2.998735451330e+01
3.101627955100e+01
2.994317055764e+01
5.436746847900e+01
3.401966915688e+01
3.401709854240e+01
3.400431078334e+01
3.400864065883e+01
4.445754690625e+01
4.443797025008e+01
4.440955913850e+01
4.449427066673e+01
3.459186488865e+01
3.635590572470e+01
3.963386468324e+01
3.969906121559e+01
3.627211152517e+01
3.459297824693e+01
3.447480313672e+01
3.514338865736e+01
3.463747883485e+01
3.459109528708e+01
3.634876657034e+01
3.961589537097e+01
3.447977673999e+01
3.514714992445e+01
3.462081256761e+01
3.455948339666e+01
3.644276809612e+01
3.956613337127e+01
3.447278970232e+01
3.514469947834e+01
3.464153598290e+01
3.463755287471e+01
3.514584897456e+01
3.447543990266e+01
3.628111756288e+01
3.515368635507e+01
3.627149710471e+01
3.516894801418e+01
3.627482065518e+01
3.517786943950e+01
3.626131555865e+01
3.513292043087e+01
5.535950628774e+01
3.667116254081e+01
3.666856457209e+01
3.665745484981e+01
3.666150967165e+01
4.592416948680e+01
4.590523387488e+01
4.587462179346e+01
4.596405379675e+01
3.718628326083e+01
3.874670550978e+01
4.162907106044e+01
4.168575082222e+01
3.867302568366e+01
3.718792416063e+01
3.708707659679e+01
3.768784206059e+01
3.722943553836e+01
3.718535107644e+01
3.874051044418e+01
4.161315910644e+01
3.709114465165e+01
3.769108674379e+01
3.721451858657e+01
3.715716157360e+01
3.882371616385e+01
4.157082473608e+01
3.708483852612e+01
3.768907741560e+01
3.723292856203e+01
3.722942723131e+01
3.769006927354e+01
3.708766647519e+01
3.868840546153e+01
3.768910734596e+01
3.867981607506e+01
3.770336699353e+01
3.868311419789e+01
3.771048188345e+01
3.867115382871e+01
3.767083765577e+01
5.588031964180e+01
3.782909287760e+01
3.782665327116e+01
3.781603113016e+01
3.782023645440e+01
4.662112672951e+01
4.660315758599e+01
4.657454423971e+01
4.665825016941e+01
3.831321824431e+01
3.978871550133e+01
4.252942390929e+01
4.258338179138e+01
3.971867155147e+01
3.831472359831e+01
3.821850078322e+01
3.878318315508e+01
3.835342040036e+01
3.831237080207e+01
3.978275332844e+01
4.251409438925e+01
3.822228511710e+01
3.878623671081e+01
3.833932581047e+01
3.828579109463e+01
3.986177934336e+01
4.247359504929e+01
3.821635582437e+01
3.878433626491e+01
3.835674535551e+01
3.835344248015e+01
3.878531771147e+01
3.821907897675e+01
3.972922413002e+01
3.878656556415e+01
3.972108856266e+01
3.879974948323e+01
3.972415748104e+01
3.880685250995e+01
3.971287284162e+01
3.876935907663e+01
5.606289815121e+01
3.827562073564e+01
3.827325013609e+01
3.826290535181e+01
3.826694581615e+01
4.686289196490e+01
4.684531732214e+01
4.681711596027e+01
4.689957214961e+01
3.874821227040e+01
4.018900814301e+01
4.286536617723e+01
4.291801563418e+01
4.012062210897e+01
3.874967844036e+01
3.865561125793e+01
3.920683794559e+01
3.878737071996e+01
3.874739086454e+01
4.018318480147e+01
4.285039675071e+01
3.865931728772e+01
3.920981717026e+01
3.877360852940e+01
3.872143680280e+01
4.026034206883e+01
4.281090462835e+01
3.865352909258e+01
3.920795706416e+01
3.879062589918e+01
3.878740287872e+01
3.920892209725e+01
3.865617437207e+01
4.013081755240e+01
3.921032404711e+01
4.012286897439e+01
3.922318124371e+01
4.012585373060e+01
3.923013505843e+01
4.011484106253e+01
3.919352072580e+01
5.610462295785e+01
3.842095546803e+01
3.841861216607e+01
3.840835060112e+01
3.841237790620e+01
4.692911860864e+01
4.691167310042e+01
4.688366082811e+01
4.696553223633e+01
3.888868093761e+01
4.031524086142e+01
4.296665475684e+01
4.301879855306e+01
4.024748562796e+01
3.889012582163e+01
3.879694133698e+01
3.934248141485e+01
3.892741685299e+01
3.888787225947e+01
4.030946760224e+01
4.295179907103e+01
3.880061283360e+01
3.934543689589e+01
3.891379483193e+01
3.886216502893e+01
4.038589401361e+01
4.291267203194e+01
3.879488523172e+01
3.934359138420e+01
3.893063614755e+01
3.892744472706e+01
3.934454373430e+01
3.879749932014e+01
4.025723768627e+01
3.934607349777e+01
4.024937269920e+01
3.935878553192e+01
4.025232414103e+01
3.936569145927e+01
4.024141473359e+01
3.932943767270e+01
5.608900669888e+01
3.816094042905e+01
3.815861534245e+01
3.814836989178e+01
3.815234175488e+01
4.665086710291e+01
4.663341179590e+01
4.660550983611e+01
4.668701211416e+01
3.862758770833e+01
4.005086578357e+01
4.269634955187e+01
4.274836695276e+01
3.998324718404e+01
3.862901390540e+01
3.853600900923e+01
3.908028806568e+01
3.866618680436e+01
3.862678762428e+01
4.004511239244e+01
4.268151113138e+01
3.853969567557e+01
3.908324795751e+01
3.865260643772e+01
3.860110982709e+01
4.012135686968e+01
4.264245688287e+01
3.853398186376e+01
3.908139420445e+01
3.866939551856e+01
3.866620737228e+01
3.908233472170e+01
3.853655986017e+01
3.999296376513e+01
3.908392222857e+01
3.998513400889e+01
3.909660951656e+01
3.998807811686e+01
3.910348357868e+01
3.997717585521e+01
3.906730918637e+01
5.579182559199e+01
3.786405755234e+01
3.786173909629e+01
3.785147294322e+01
3.785541120641e+01
4.636756441912e+01
4.635004225989e+01
4.632212404195e+01
4.640363104477e+01
3.833143473083e+01
3.975687857381e+01
4.240636647647e+01
4.245845349731e+01
3.968914588003e+01
3.833285060895e+01
3.823968206298e+01
3.878481153980e+01
3.837005866598e+01
3.833063857415e+01
3.975112296222e+01
4.239149498407e+01
3.824339374069e+01
3.878778481509e+01
3.835646586202e+01
3.830489815156e+01
3.982747472347e+01
4.235237418960e+01
3.823767160434e+01
3.878591830633e+01
3.837326975834e+01
3.837007346354e+01
3.878685238075e+01
3.824022896330e+01
3.969890446309e+01
3.878847591658e+01
3.969107628896e+01
3.880118831549e+01
3.969402421969e+01
3.880805705502e+01
3.968309125977e+01
3.877182453791e+01
5.552237526423e+01
3.764336527356e+01
3.764105685076e+01
3.763079207886e+01
3.763469629657e+01
4.614277857668e+01
4.612523126340e+01
4.609734862961e+01
4.617871597725e+01
3.811046708155e+01
3.953507152694e+01
4.218308801201e+01
4.223513805542e+01
3.946736672638e+01
3.811187169253e+01
3.801873441699e+01
3.856354105825e+01
3.814903599885e+01
3.810967589856e+01
3.952932400778e+01
4.216821423881e+01
3.802245983742e+01
3.856651996613e+01
3.813545810419e+01
3.808393092290e+01
3.960562597982e+01
4.212910824001e+01
3.801674152092e+01
3.856464615132e+01
3.815224318255e+01
3.814904610835e+01
3.856557335210e+01
3.801927706267e+01
3.947711598152e+01
3.856723672129e+01
3.946930367943e+01
3.857994469894e+01
3.947224912258e+01
3.858679844113e+01
3.946131084366e+01
3.855058464248e+01
5.529320813720e+01
3.746661683631e+01
3.746431760739e+01
3.745405793124e+01
3.745793316085e+01
4.595959853459e+01
4.594203554006e+01
4.591418858044e+01
4.599542107205e+01
3.793330584764e+01
3.935667323754e+01
4.200251108169e+01
4.205451108238e+01
3.928901629535e+01
3.793470080165e+01
3.784162266785e+01
3.838594597580e+01
3.797181284853e+01
3.793251911233e+01
3.935093428799e+01
4.198763992828e+01
3.784535772443e+01
3.838892825439e+01
3.795825240371e+01
3.790678030851e+01
3.942716725007e+01
4.194856084896e+01
3.783964480318e+01
3.838704913216e+01
3.797501571095e+01
3.797181928959e+01
3.838797054275e+01
3.784216164309e+01
3.929874271651e+01
3.838967151690e+01
3.929094638207e+01
3.840237014576e+01
3.929388856191e+01
3.840920996983e+01
3.928295019728e+01
3.837302548471e+01
5.510330076248e+01
3.733567325787e+01
3.733338273208e+01
3.732313340898e+01
3.732698394853e+01
4.581855874365e+01
4.580099291704e+01
4.577318835816e+01
4.585427227379e+01
3.780174379850e+01
3.922326492769e+01
4.186581184234e+01
4.191774111084e+01
3.915568613647e+01
3.780313042783e+01
3.771015340289e+01
3.825375350122e+01
3.784017648830e+01
3.780096110686e+01
3.921753593268e+01
4.185095079143e+01
3.771389351081e+01
3.825673647202e+01
3.782663806187e+01
3.777524306053e+01
3.929366900794e+01
4.181191632371e+01
3.770818839897e+01
3.825485432632e+01
3.784337413488e+01
3.784018025134e+01
3.825577084660e+01
3.771068920212e+01
3.916537722839e+01
3.825750617272e+01
3.915759814181e+01
3.827018879718e+01
3.916053586542e+01
3.827701457572e+01
3.914960425376e+01
3.824087535576e+01
5.495178304400e+01
3.724834398347e+01
3.724606139896e+01
3.723582659698e+01
3.723965710433e+01
4.571834332663e+01
4.570078521730e+01
4.567302771116e+01
4.575395510542e+01
3.771364104897e+01
3.913285216873e+01
4.177126468829e+01
4.182310789487e+01
3.906537481226e+01
3.771502098113e+01
3.762217876761e+01
3.816487438046e+01
3.775199183418e+01
3.771286186457e+01
3.912713397532e+01
4.175641953826e+01
3.762591970914e+01
3.816785571576e+01
3.773847861258e+01
3.768717628916e+01
3.920314418166e+01
4.171744323876e+01
3.762022420042e+01
3.816597262808e+01
3.775518363576e+01
3.775199384245e+01
3.816688517979e+01
3.762271191158e+01
3.907502092485e+01
3.816864927865e+01
3.906725966416e+01
3.818131081480e+01
3.907019222016e+01
3.818812277709e+01
3.905927294431e+01
3.815204111060e+01
5.483818373265e+01
3.719782238831e+01
3.719554626468e+01
3.718532644431e+01
3.718914200598e+01
4.565531530585e+01
4.563777036046e+01
4.561005447759e+01
4.569084765495e+01
3.766237267754e+01
3.907937233437e+01
4.171381028098e+01
4.176557191455e+01
3.901199431417e+01
3.766374747084e+01
3.757103454475e+01
3.811285839316e+01
3.770064737237e+01
3.766159630942e+01
3.907366376507e+01
4.169898241135e+01
3.757477396554e+01
3.811583688113e+01
3.768715726395e+01
3.763594533029e+01
3.914955675425e+01
4.166006343291e+01
3.756908766395e+01
3.811395417193e+01
3.770383418400e+01
3.770064870204e+01
3.811486410747e+01
3.757156577313e+01
3.902159519932e+01
3.811665560378e+01
3.901384912620e+01
3.812929589539e+01
3.901677649976e+01
3.813609700800e+01
3.900587108911e+01
3.810007074998e+01
5.476237184442e+01
3.721087760050e+01
3.720860973488e+01
3.719842040562e+01
3.720222373278e+01
4.564341106052e+01
4.562590428237e+01
4.559826564199e+01
4.567882308339e+01
3.767396046529e+01
3.908655694929e+01
4.171311681672e+01
4.176472088586e+01
3.901937890667e+01
3.767533151534e+01
3.758289870200e+01
3.812300396998e+01
3.771210738700e+01
3.767318711009e+01
3.908086503170e+01
4.169832516961e+01
3.758662701203e+01
3.812597395144e+01
3.769866001180e+01
3.764761178607e+01
3.915653008055e+01
4.165952078145e+01
3.758095856727e+01
3.812409586730e+01
3.771528418616e+01
3.771210860160e+01
3.812500278810e+01
3.758342782411e+01
3.902888873741e+01
3.812681013480e+01
3.902116848389e+01
3.813940833516e+01
3.902408757776e+01
3.814619106093e+01
3.901321395044e+01
3.811027673140e+01
5.472428839391e+01
3.724020678290e+01
3.723794660395e+01
3.722777992911e+01
3.723155616025e+01
4.565777733998e+01
4.564032799082e+01
4.561270744685e+01
4.569322680000e+01
3.770251485792e+01
3.911302188988e+01
4.173515417053e+01
4.178666769603e+01
3.904596364383e+01
3.770387260289e+01
3.761151701897e+01
3.815075228876e+01
3.774056065146e+01
3.770174625092e+01
3.910734064313e+01
4.172040750915e+01
3.761524694441e+01
3.815371672733e+01
3.772713434200e+01
3.767621959484e+01
3.918287042902e+01
4.168168106983e+01
3.760958850221e+01
3.815184084920e+01
3.774373694492e+01
3.774056547834e+01
3.815274838584e+01
3.761204564765e+01
3.905549894221e+01
3.815465151998e+01
3.904778671580e+01
3.816722490491e+01
3.905069141046e+01
3.817400410204e+01
3.903983975439e+01
3.813814014104e+01
5.472758579111e+01
3.722605468447e+01
3.722378387734e+01
3.721354619444e+01
3.721747522283e+01
4.565479550473e+01
4.563722747830e+01
4.560973999544e+01
4.568981539728e+01
3.768800263050e+01
3.909762980760e+01
4.172256126382e+01
4.177414202518e+01
3.903046003767e+01
3.768937756702e+01
3.759720559781e+01
3.813591309345e+01
3.772612798009e+01
3.768722984638e+01
3.909193224088e+01
4.170769125341e+01
3.760091219255e+01
3.813889220556e+01
3.771271492172e+01
3.766166932071e+01
3.916754809459e+01
4.166883312158e+01
3.759525793359e+01
3.813701380257e+01
3.772927813678e+01
3.772610740654e+01
3.813790411580e+01
3.759773444030e+01
3.903925430166e+01
3.813972413444e+01
3.903157095124e+01
3.815227976354e+01
3.903450265218e+01
3.815906873049e+01
3.902362421122e+01
3.812323278330e+01
5.471598337289e+01
3.696088861922e+01
3.695861136490e+01
3.694844955562e+01
3.695172529570e+01
4.544649448597e+01
4.542890878134e+01
4.540003358798e+01
4.548409197258e+01
3.743293232614e+01
3.886429776182e+01
4.150572561004e+01
4.155748176815e+01
3.879674910191e+01
3.743428977609e+01
3.734127127609e+01
3.789192490412e+01
3.747201314695e+01
3.743214208575e+01
3.885865744836e+01
4.149120183512e+01
3.734518492463e+01
3.789496092551e+01
3.745838991489e+01
3.740618324215e+01
3.893478308130e+01
4.145258268839e+01
3.733941868535e+01
3.789304650685e+01
3.747521988033e+01
3.747199279551e+01
3.789391448093e+01
3.734178430315e+01
3.881104268229e+01
3.789389652424e+01
3.880322044381e+01
3.790696964275e+01
3.880616018276e+01
3.791344443549e+01
3.879514315804e+01
3.787704336536e+01
5.465576735640e+01
3.596294255038e+01
3.596113746461e+01
3.594976956091e+01
3.595404331627e+01
4.504673927373e+01
4.502950993380e+01
4.500737175667e+01
4.507341747647e+01
3.643302241397e+01
3.792944621096e+01
4.078799581664e+01
4.084487325359e+01
3.785628010663e+01
3.643345934199e+01
3.632783249208e+01
3.687730344424e+01
3.646743551051e+01
3.643268059190e+01
3.792297179594e+01
4.077107345714e+01
3.633221305443e+01
3.688060373773e+01
3.645352130421e+01
3.640574127174e+01
3.800423704972e+01
4.072632905950e+01
3.632646378537e+01
3.687828142259e+01
3.647096923824e+01
3.646758819124e+01
3.687934289029e+01
3.632835518340e+01
3.784350716319e+01
3.689858997175e+01
3.783554631586e+01
3.691004845273e+01
3.783806323716e+01
3.691928353548e+01
3.782645775802e+01
3.688104323728e+01
5.441550641211e+01
3.391595565541e+01
3.391478981983e+01
3.390700613363e+01
3.391079973396e+01
4.126590286145e+01
4.122603946812e+01
4.113999567659e+01
4.136920659440e+01
3.421624805296e+01
3.519981840984e+01
3.725966831275e+01
3.729068459211e+01
3.514692099530e+01
3.421781148268e+01
3.414616441475e+01
3.449199335998e+01
3.423590898486e+01
3.421616334662e+01
3.519502330048e+01
3.724278331192e+01
3.414869749532e+01
3.449436115391e+01
3.422686650218e+01
3.419613016103e+01
3.525344948668e+01
3.722426219988e+01
3.414514482774e+01
3.449261462907e+01
3.423817991205e+01
3.423602571093e+01
3.449334290908e+01
3.414665326444e+01
3.510546813178e+01
3.451285429410e+01
3.510036254605e+01
3.451901349128e+01
3.510164913798e+01
3.452680734131e+01
3.509361261028e+01
3.450174154867e+01
5.281561045754e+01
3.331570155009e+01
3.331467491982e+01
3.330953290195e+01
3.331148630562e+01
3.632229904796e+01
3.633959669366e+01
3.640451367853e+01
3.623707456617e+01
3.354133548592e+01
3.422594006418e+01
3.540801894807e+01
3.544188705851e+01
3.419547108994e+01
3.354105913436e+01
3.349669135031e+01
3.376327354140e+01
3.356100157859e+01
3.354083445542e+01
3.422329463224e+01
3.540390859058e+01
3.349857729305e+01
3.376456786948e+01
3.355448435589e+01
3.353005672076e+01
3.425754082620e+01
3.537042954581e+01
3.349559365874e+01
3.376368441467e+01
3.356258456735e+01
3.356098832768e+01
3.376416018393e+01
3.349671972540e+01
3.421496607211e+01
3.376373815859e+01
3.421150256402e+01
3.377027601746e+01
3.421372418579e+01
3.377285676897e+01
3.420836300647e+01
3.375543680658e+01
3.463697118571e+01
3.272268796601e+01
3.272163743281e+01
3.271962800794e+01
3.271906059566e+01
3.393339918667e+01
3.394769134286e+01
3.397278159170e+01
3.391313813428e+01
3.287760125750e+01
3.328334841063e+01
3.380017688747e+01
3.381527610841e+01
3.327068310424e+01
3.287729922152e+01
3.285729475574e+01
3.304265596152e+01
3.289482887606e+01
3.287705808786e+01
3.328271976814e+01
3.380274931690e+01
3.285863082904e+01
3.304324467497e+01
3.289065980192e+01
3.287183019511e+01
3.329825838795e+01
3.379062723796e+01
3.285676702740e+01
3.304319615380e+01
3.289572722791e+01
3.289474678297e+01
3.304333470809e+01
3.285747019713e+01
3.332262366495e+01
3.302635753609e+01
3.331981531935e+01
3.303260448824e+01
3.332066805490e+01
3.303155265216e+01
3.331835325543e+01
3.302122414892e+01
3.434839300277e+01
3.216540344926e+01
3.216452856869e+01
3.216424766240e+01
3.216273753159e+01
3.279144071082e+01
3.279434523864e+01
3.279900282295e+01
3.278905925358e+01
3.226278914772e+01
3.247568060455e+01
3.269972251133e+01
3.270560568670e+01
3.247019553287e+01
3.226360443134e+01
3.225833459073e+01
3.237265608004e+01
3.227539023187e+01
3.226215345000e+01
3.247571757226e+01
3.270141038054e+01
3.225884351468e+01
3.237284811945e+01
3.227299842371e+01
3.225882294420e+01
3.248341422022e+01
3.269834057814e+01
3.225762388487e+01
3.237294259965e+01
3.227583096302e+01
3.227531921229e+01
3.237297769746e+01
3.225836849423e+01
3.251348498043e+01
3.235161749906e+01
3.251200293107e+01
3.235628080290e+01
3.251299155678e+01
3.235410243148e+01
3.251164971812e+01
3.234882652495e+01
3.274275220066e+01
3.166681404425e+01
3.166611069557e+01
3.166592021202e+01
3.166575861112e+01
3.195011102451e+01
3.195167407678e+01
3.195493719590e+01
3.194730660633e+01
3.172110210674e+01
3.182278330520e+01
3.192050160403e+01
3.192334997853e+01
3.182026682580e+01
3.172202395135e+01
3.172316780349e+01
3.178574926586e+01
3.172998730226e+01
3.172056999313e+01
3.182285402856e+01
3.192117039397e+01
3.172309995545e+01
3.178582838041e+01
3.172871379935e+01
3.171874212219e+01
3.182673555901e+01
3.191967927413e+01
3.172240083955e+01
3.178599361484e+01
3.173003391769e+01
3.172981200027e+01
3.178592785304e+01
3.172318821099e+01
3.184641278628e+01
3.176846581362e+01
3.184572503010e+01
3.177136870974e+01
3.184663235190e+01
3.176961615989e+01
3.184587704758e+01
3.176721592755e+01
3.196415037877e+01
3.035850136012e+01
3.035839838269e+01
3.035837004356e+01
3.035877563202e+01
3.035110660643e+01
3.035101247262e+01
3.035078850398e+01
3.035141021966e+01
3.035862085317e+01
3.035628201439e+01
3.035243730421e+01
3.035239096798e+01
3.035639347848e+01
3.035875202614e+01
3.035952539992e+01
3.035957181537e+01
3.035913154877e+01
3.035856099329e+01
3.035627706507e+01
3.035241868022e+01
3.035936429304e+01
3.035952123642e+01
3.035910408466e+01
3.035866608347e+01