# vtk DataFile Version 3.0
Unstructured Grid from OpenGeoSys
ASCII
DATASET UNSTRUCTURED_GRID
FIELD TimesAndCycles 2
TIME 1 1 double
3.600000000000e+03
CYLCE 1 1 long
1
POINTS 1394 double
0.000000000000e+00 0.000000000000e+00 0.000000000000e+00
5.000000000000e+00 0.000000000000e+00 0.000000000000e+00
5.000000000000e+00 5.000000000000e+00 0.000000000000e+00
0.000000000000e+00 5.000000000000e+00 0.000000000000e+00
2.244234909000e+00 2.244234909000e+00 0.000000000000e+00
2.755765091000e+00 2.244234909000e+00 0.000000000000e+00
2.755765091000e+00 2.755765091000e+00 0.000000000000e+00
2.244234909000e+00 2.755765091000e+00 0.000000000000e+00
7.141316008320e-01 7.141316008320e-01 0.000000000000e+00
1.314642334730e+00 1.314642334730e+00 0.000000000000e+00
1.819609643610e+00 1.819609643610e+00 0.000000000000e+00
1.819609643610e+00 3.180390356390e+00 0.000000000000e+00
1.314642334740e+00 3.685357665260e+00 0.000000000000e+00
7.141316008360e-01 4.285868399160e+00 0.000000000000e+00
0.000000000000e+00 3.750000000000e+00 0.000000000000e+00
0.000000000000e+00 2.500000000000e+00 0.000000000000e+00
0.000000000000e+00 1.250000000000e+00 0.000000000000e+00
4.285868399170e+00 7.141316008320e-01 0.000000000000e+00
3.685357665270e+00 1.314642334730e+00 0.000000000000e+00
3.180390356390e+00 1.819609643610e+00 0.000000000000e+00
1.250000000000e+00 0.000000000000e+00 0.000000000000e+00
2.500000000000e+00 0.000000000000e+00 0.000000000000e+00
3.750000000000e+00 0.000000000000e+00 0.000000000000e+00
4.285868399170e+00 4.285868399170e+00 0.000000000000e+00
3.685357665270e+00 3.685357665270e+00 0.000000000000e+00
3.180390356390e+00 3.180390356390e+00 0.000000000000e+00
5.000000000000e+00 1.250000000000e+00 0.000000000000e+00
5.000000000000e+00 2.500000000000e+00 0.000000000000e+00
5.000000000000e+00 3.750000000000e+00 0.000000000000e+00
3.750000000000e+00 5.000000000000e+00 0.000000000000e+00
2.500000000000e+00 5.000000000000e+00 0.000000000000e+00
1.250000000000e+00 5.000000000000e+00 0.000000000000e+00
9.560744151940e-01 2.677827143250e+00 0.000000000000e+00
6.659597640160e-01 1.438876720610e+00 0.000000000000e+00
2.309219871940e+00 9.522638293400e-01 0.000000000000e+00
3.458157207860e+00 6.354750772000e-01 0.000000000000e+00
4.043925584810e+00 2.322172856750e+00 0.000000000000e+00
4.334040235980e+00 3.561123279390e+00 0.000000000000e+00
2.318530875810e+00 4.048536535600e+00 0.000000000000e+00
3.552396921680e+00 4.370927842320e+00 0.000000000000e+00
2.500000000000e+00 2.500000000000e+00 0.000000000000e+00
0.000000000000e+00 0.000000000000e+00 -5.000000000000e-01
5.000000000000e+00 0.000000000000e+00 -5.000000000000e-01
5.000000000000e+00 5.000000000000e+00 -5.000000000000e-01
0.000000000000e+00 5.000000000000e+00 -5.000000000000e-01
2.244234909000e+00 2.244234909000e+00 -5.000000000000e-01
2.755765091000e+00 2.244234909000e+00 -5.000000000000e-01
2.755765091000e+00 2.755765091000e+00 -5.000000000000e-01
2.244234909000e+00 2.755765091000e+00 -5.000000000000e-01
7.141316008320e-01 7.141316008320e-01 -5.000000000000e-01
1.314642334730e+00 1.314642334730e+00 -5.000000000000e-01
1.819609643610e+00 1.819609643610e+00 -5.000000000000e-01
1.819609643610e+00 3.180390356390e+00 -5.000000000000e-01
1.314642334740e+00 3.685357665260e+00 -5.000000000000e-01
7.141316008360e-01 4.285868399160e+00 -5.000000000000e-01
0.000000000000e+00 3.750000000000e+00 -5.000000000000e-01
0.000000000000e+00 2.500000000000e+00 -5.000000000000e-01
0.000000000000e+00 1.250000000000e+00 -5.000000000000e-01
4.285868399170e+00 7.141316008320e-01 -5.000000000000e-01
3.685357665270e+00 1.314642334730e+00 -5.000000000000e-01
3.180390356390e+00 1.819609643610e+00 -5.000000000000e-01
1.250000000000e+00 0.000000000000e+00 -5.000000000000e-01
2.500000000000e+00 0.000000000000e+00 -5.000000000000e-01
3.750000000000e+00 0.000000000000e+00 -5.000000000000e-01
4.285868399170e+00 4.285868399170e+00 -5.000000000000e-01
3.685357665270e+00 3.685357665270e+00 -5.000000000000e-01
3.180390356390e+00 3.180390356390e+00 -5.000000000000e-01
5.000000000000e+00 1.250000000000e+00 -5.000000000000e-01
5.000000000000e+00 2.500000000000e+00 -5.000000000000e-01
5.000000000000e+00 3.750000000000e+00 -5.000000000000e-01
3.750000000000e+00 5.000000000000e+00 -5.000000000000e-01
2.500000000000e+00 5.000000000000e+00 -5.000000000000e-01
1.250000000000e+00 5.000000000000e+00 -5.000000000000e-01
9.560744151940e-01 2.677827143250e+00 -5.000000000000e-01
6.659597640160e-01 1.438876720610e+00 -5.000000000000e-01
2.309219871940e+00 9.522638293400e-01 -5.000000000000e-01
3.458157207860e+00 6.354750772000e-01 -5.000000000000e-01
4.043925584810e+00 2.322172856750e+00 -5.000000000000e-01
4.334040235980e+00 3.561123279390e+00 -5.000000000000e-01
2.318530875810e+00 4.048536535600e+00 -5.000000000000e-01
3.552396921680e+00 4.370927842320e+00 -5.000000000000e-01
2.500000000000e+00 2.500000000000e+00 -5.000000000000e-01
0.000000000000e+00 0.000000000000e+00 -1.000000000000e+00
5.000000000000e+00 0.000000000000e+00 -1.000000000000e+00
5.000000000000e+00 5.000000000000e+00 -1.000000000000e+00
0.000000000000e+00 5.000000000000e+00 -1.000000000000e+00
2.244234909000e+00 2.244234909000e+00 -1.000000000000e+00
2.755765091000e+00 2.244234909000e+00 -1.000000000000e+00
2.755765091000e+00 2.755765091000e+00 -1.000000000000e+00
2.244234909000e+00 2.755765091000e+00 -1.000000000000e+00
7.141316008320e-01 7.141316008320e-01 -1.000000000000e+00
1.314642334730e+00 1.314642334730e+00 -1.000000000000e+00
1.819609643610e+00 1.819609643610e+00 -1.000000000000e+00
1.819609643610e+00 3.180390356390e+00 -1.000000000000e+00
1.314642334740e+00 3.685357665260e+00 -1.000000000000e+00
7.141316008360e-01 4.285868399160e+00 -1.000000000000e+00
0.000000000000e+00 3.750000000000e+00 -1.000000000000e+00
0.000000000000e+00 2.500000000000e+00 -1.000000000000e+00
0.000000000000e+00 1.250000000000e+00 -1.000000000000e+00
4.285868399170e+00 7.141316008320e-01 -1.000000000000e+00
3.685357665270e+00 1.314642334730e+00 -1.000000000000e+00
3.180390356390e+00 1.819609643610e+00 -1.000000000000e+00
1.250000000000e+00 0.000000000000e+00 -1.000000000000e+00
2.500000000000e+00 0.000000000000e+00 -1.000000000000e+00
3.750000000000e+00 0.000000000000e+00 -1.000000000000e+00
4.285868399170e+00 4.285868399170e+00 -1.000000000000e+00
3.685357665270e+00 3.685357665270e+00 -1.000000000000e+00
3.180390356390e+00 3.180390356390e+00 -1.000000000000e+00
5.000000000000e+00 1.250000000000e+00 -1.000000000000e+00
5.000000000000e+00 2.500000000000e+00 -1.000000000000e+00
5.000000000000e+00 3.750000000000e+00 -1.000000000000e+00
3.750000000000e+00 5.000000000000e+00 -1.000000000000e+00
2.500000000000e+00 5.000000000000e+00 -1.000000000000e+00
1.250000000000e+00 5.000000000000e+00 -1.000000000000e+00
9.560744151940e-01 2.677827143250e+00 -1.000000000000e+00
6.659597640160e-01 1.438876720610e+00 -1.000000000000e+00
2.309219871940e+00 9.522638293400e-01 -1.000000000000e+00
3.458157207860e+00 6.354750772000e-01 -1.000000000000e+00
4.043925584810e+00 2.322172856750e+00 -1.000000000000e+00
4.334040235980e+00 3.561123279390e+00 -1.000000000000e+00
2.318530875810e+00 4.048536535600e+00 -1.000000000000e+00
3.552396921680e+00 4.370927842320e+00 -1.000000000000e+00
2.500000000000e+00 2.500000000000e+00 -1.000000000000e+00
0.000000000000e+00 0.000000000000e+00 -3.000000000000e+00
5.000000000000e+00 0.000000000000e+00 -3.000000000000e+00
5.000000000000e+00 5.000000000000e+00 -3.000000000000e+00
0.000000000000e+00 5.000000000000e+00 -3.000000000000e+00
2.244234909000e+00 2.244234909000e+00 -3.000000000000e+00
2.755765091000e+00 2.244234909000e+00 -3.000000000000e+00
2.755765091000e+00 2.755765091000e+00 -3.000000000000e+00
2.244234909000e+00 2.755765091000e+00 -3.000000000000e+00
7.141316008320e-01 7.141316008320e-01 -3.000000000000e+00
1.314642334730e+00 1.314642334730e+00 -3.000000000000e+00
1.819609643610e+00 1.819609643610e+00 -3.000000000000e+00
1.819609643610e+00 3.180390356390e+00 -3.000000000000e+00
1.314642334740e+00 3.685357665260e+00 -3.000000000000e+00
7.141316008360e-01 4.285868399160e+00 -3.000000000000e+00
0.000000000000e+00 3.750000000000e+00 -3.000000000000e+00
0.000000000000e+00 2.500000000000e+00 -3.000000000000e+00
0.000000000000e+00 1.250000000000e+00 -3.000000000000e+00
4.285868399170e+00 7.141316008320e-01 -3.000000000000e+00
3.685357665270e+00 1.314642334730e+00 -3.000000000000e+00
3.180390356390e+00 1.819609643610e+00 -3.000000000000e+00
1.250000000000e+00 0.000000000000e+00 -3.000000000000e+00
2.500000000000e+00 0.000000000000e+00 -3.000000000000e+00
3.750000000000e+00 0.000000000000e+00 -3.000000000000e+00
4.285868399170e+00 4.285868399170e+00 -3.000000000000e+00
3.685357665270e+00 3.685357665270e+00 -3.000000000000e+00
3.180390356390e+00 3.180390356390e+00 -3.000000000000e+00
5.000000000000e+00 1.250000000000e+00 -3.000000000000e+00
5.000000000000e+00 2.500000000000e+00 -3.000000000000e+00
5.000000000000e+00 3.750000000000e+00 -3.000000000000e+00
3.750000000000e+00 5.000000000000e+00 -3.000000000000e+00
2.500000000000e+00 5.000000000000e+00 -3.000000000000e+00
1.250000000000e+00 5.000000000000e+00 -3.000000000000e+00
9.560744151940e-01 2.677827143250e+00 -3.000000000000e+00
6.659597640160e-01 1.438876720610e+00 -3.000000000000e+00
2.309219871940e+00 9.522638293400e-01 -3.000000000000e+00
3.458157207860e+00 6.354750772000e-01 -3.000000000000e+00
4.043925584810e+00 2.322172856750e+00 -3.000000000000e+00
4.334040235980e+00 3.561123279390e+00 -3.000000000000e+00
2.318530875810e+00 4.048536535600e+00 -3.000000000000e+00
3.552396921680e+00 4.370927842320e+00 -3.000000000000e+00
2.500000000000e+00 2.500000000000e+00 -3.000000000000e+00
0.000000000000e+00 0.000000000000e+00 -5.000000000000e+00
5.000000000000e+00 0.000000000000e+00 -5.000000000000e+00
5.000000000000e+00 5.000000000000e+00 -5.000000000000e+00
0.000000000000e+00 5.000000000000e+00 -5.000000000000e+00
2.244234909000e+00 2.244234909000e+00 -5.000000000000e+00
[...]
POINT_DATA 1394
SCALARS TEMPERATURE1 double 1
LOOKUP_TABLE default
1.000000000000e+01
1.000000000000e+01
1.000000000000e+01
1.000000000000e+01
1.000000000000e+01
1.000000000000e+01
1.000000000000e+01
1.000000000000e+01
1.000000000000e+01
1.000000000000e+01
1.000000000000e+01
1.000000000000e+01
1.000000000000e+01
1.000000000000e+01
1.000000000000e+01
1.000000000000e+01
1.000000000000e+01
1.000000000000e+01
1.000000000000e+01
1.000000000000e+01
1.000000000000e+01
1.000000000000e+01
1.000000000000e+01
1.000000000000e+01
1.000000000000e+01
1.000000000000e+01
1.000000000000e+01
1.000000000000e+01
1.000000000000e+01
1.000000000000e+01
1.000000000000e+01
1.000000000000e+01
1.000000000000e+01
1.000000000000e+01
1.000000000000e+01
1.000000000000e+01
1.000000000000e+01
1.000000000000e+01
1.000000000000e+01
1.000000000000e+01
1.000000000000e+01
1.545381641394e+01
1.545541588815e+01
1.545491585148e+01
1.545179795392e+01
1.569771592117e+01
1.570986403861e+01
1.577467147927e+01
1.560102515959e+01
1.545251578423e+01
1.563854037042e+01
1.596051462165e+01
1.597590926401e+01
1.563128384914e+01
1.544823470207e+01
1.540513714512e+01
1.541698175039e+01
1.543411855851e+01
1.545381173619e+01
1.563761203505e+01
1.596262501006e+01
1.540745264111e+01
1.541664009678e+01
1.543322834925e+01
1.545452993650e+01
1.564440335617e+01
1.594473581277e+01
1.540723185550e+01
1.541570503285e+01
1.543654687550e+01
1.543570043421e+01
1.541712152214e+01
1.540502001448e+01
1.560556339320e+01
1.547586324233e+01
1.560448854555e+01
1.547216491909e+01
1.560241174843e+01
1.547855301006e+01
1.560201526703e+01
1.547284932206e+01
1.177327294283e+01
2.065521651022e+01
2.065558528736e+01
2.065944843242e+01
2.064506980799e+01
2.516682578223e+01
2.510879587029e+01
2.479792553311e+01
2.564126470380e+01
2.080528891862e+01
2.112863079484e+01
2.172262737599e+01
2.169199800501e+01
2.111686229417e+01
2.080882051184e+01
2.079914433118e+01
2.095701629298e+01
2.081863614877e+01
2.080566223360e+01
2.112819352955e+01
2.171681025018e+01
2.080230707212e+01
2.095910712457e+01
2.081490422784e+01
2.079406882502e+01
2.114279635654e+01
2.177150733305e+01
2.080159775318e+01
2.095858706217e+01
2.081845417858e+01
2.081888875762e+01
2.095776728808e+01
2.079970149857e+01
2.113643329304e+01
2.093052951911e+01
2.113244502534e+01
2.093670558412e+01
2.112954764581e+01
2.093512644126e+01
2.112864053457e+01
2.092702510106e+01
4.460732428914e+01
2.339718403283e+01
2.339603859268e+01
2.339529943359e+01
2.339072925667e+01
2.819349384357e+01
2.811516289473e+01
2.783901769637e+01
2.858178780360e+01
2.358423408936e+01
2.392174393888e+01
2.459941261757e+01
2.457730951291e+01
2.390439247198e+01
2.358951059632e+01
2.360206702988e+01
2.379800499577e+01
2.361781185340e+01
2.358368830554e+01
2.392077788742e+01
2.459213386962e+01
2.360347838890e+01
2.380089651521e+01
2.361382431561e+01
2.357002842260e+01
2.394054225357e+01
2.463712182442e+01
2.360253127619e+01
2.380088306657e+01
2.361590933520e+01
2.361633571302e+01
2.379877861507e+01
2.360274039456e+01
2.393359189524e+01
2.373320456221e+01
2.393049515418e+01
2.374268468814e+01
2.393004906342e+01
2.373732797138e+01
2.392747817952e+01
2.372983837198e+01
4.489432101625e+01
2.502797847415e+01
2.502703125012e+01
2.502657809463e+01
2.502126005039e+01
2.941791663196e+01
2.935383007077e+01
2.910979484728e+01
2.976669842370e+01
2.520960828049e+01
2.554174366451e+01
2.619499366365e+01
2.617624072387e+01
2.552515945928e+01
2.521453120738e+01
2.522492490398e+01
2.541572498267e+01
2.524089245873e+01
2.520903702232e+01
2.554092068906e+01
2.618769256438e+01
2.522642329513e+01
2.541845772281e+01
2.523703536446e+01
2.519590777723e+01
2.555986772306e+01
2.622630548812e+01
2.522536165394e+01
2.541829291861e+01
2.523921371623e+01
2.523958504095e+01
2.541636926884e+01
2.522541444511e+01
2.555469889705e+01
2.535511091999e+01
2.555190109659e+01
2.536418534040e+01
2.555185921365e+01
2.535906782826e+01
2.554914596562e+01
2.535162503313e+01
4.477619334370e+01
2.589702034721e+01
2.589622185328e+01
2.589531562562e+01
2.589050005479e+01
3.029734186631e+01
3.023717403356e+01
3.001952298222e+01
3.060448880495e+01
2.607732417831e+01
2.643416642126e+01
2.716067304985e+01
2.714691964067e+01
2.641547046494e+01
2.608190366391e+01
2.608689855342e+01
2.627723800245e+01
2.610636138004e+01
2.607681870583e+01
2.643302947600e+01
2.715265107992e+01
2.608845062747e+01
2.627991658834e+01
2.610240712939e+01
2.606357082025e+01
2.645400623692e+01
2.718428926090e+01
2.608726046726e+01
2.627956614565e+01
2.610496165251e+01
2.610520051914e+01
2.627784650126e+01
2.608728747932e+01
2.643619715491e+01
2.622467724671e+01
2.643356345560e+01
2.623306099643e+01
2.643379745587e+01
2.622896552866e+01
2.643066841678e+01
2.622082146615e+01
4.447851907776e+01
2.624839609536e+01
2.624772388575e+01
2.624637605395e+01
2.624201918940e+01
3.069007389795e+01
3.063510784883e+01
3.044118417174e+01
3.096159070056e+01
2.642978524859e+01
2.681286494849e+01
2.761713364988e+01
2.760802384804e+01
2.679199212812e+01
2.643413653830e+01
2.643456419638e+01
2.662672229411e+01
2.645726843766e+01
2.642930861302e+01
2.681144638592e+01
2.760808080287e+01
2.643614642154e+01
2.662939113506e+01
2.645318098194e+01
2.641576726079e+01
2.683456733818e+01
2.763310164912e+01
2.643481351724e+01
2.662885597125e+01
2.645608143482e+01
2.645621509123e+01
2.662729505912e+01
2.643484969016e+01
2.680450876301e+01
2.658052284343e+01
2.680203019627e+01
2.658837917883e+01
2.680261607458e+01
2.658515627056e+01
2.679903128847e+01
2.657630567805e+01
4.397895816719e+01
2.631199880916e+01
2.631125071178e+01
2.631078463910e+01
2.630580913862e+01
3.035924027530e+01
3.030082050776e+01
3.009144874655e+01
3.065309305258e+01
2.647599662379e+01
2.678038653355e+01
2.741074242351e+01
2.739601695776e+01
2.676407275196e+01
2.648067894192e+01
2.648927764862e+01
2.666040695804e+01
2.650362156525e+01
2.647543768431e+01
2.677949231696e+01
2.740296832049e+01
2.649059248392e+01
2.666291074913e+01
2.650015966625e+01
2.646307823163e+01
2.679790268248e+01
2.743455202583e+01
2.648953803654e+01
2.666260957961e+01
2.650216270037e+01
2.650249591857e+01
2.666090996824e+01
2.648959374099e+01
2.678483608113e+01
2.660714104121e+01
2.678260312645e+01
2.661507742389e+01
2.678299103791e+01
2.661065168299e+01
2.678013470491e+01
2.660386449262e+01
4.385631842579e+01
2.652600191860e+01
2.652551738264e+01
2.652499897325e+01
2.651985640875e+01
3.023098063018e+01
3.018519422057e+01
3.002307838145e+01
3.045686958346e+01
2.668280706595e+01
2.699779837067e+01
2.765600944705e+01
2.764790956605e+01
2.698066440657e+01
2.668695548360e+01
2.668967097936e+01
2.685439775739e+01
2.670658990896e+01
2.668227684430e+01
2.699677170579e+01
2.764787600272e+01
2.669104314233e+01
2.685666894279e+01
2.670318411343e+01
2.667041769711e+01
2.701593277322e+01
2.766901172164e+01
2.668981244741e+01
2.685613329966e+01
2.670557139908e+01
2.670575892187e+01
2.685478183725e+01
2.668976981823e+01
2.699500484232e+01
2.681108450413e+01
2.699313778516e+01
2.681807612942e+01
2.699404227173e+01
2.681465919187e+01
2.699081626472e+01
2.680748337139e+01
4.145416647882e+01
2.667501317880e+01
2.667465695121e+01
2.667445063698e+01
2.666899988368e+01
2.992949020164e+01
2.989090844581e+01
2.975176436630e+01
3.012422666666e+01
2.681953459561e+01
2.711064120003e+01
2.770003997356e+01
2.769355767640e+01
2.709535901156e+01
2.682321745238e+01
2.682483685004e+01
2.697723043989e+01
2.684076205090e+01
2.681905097011e+01
2.710975986784e+01
2.769304225835e+01
2.682622148767e+01
2.697925856193e+01
2.683762647353e+01
2.680833072356e+01
2.712691419295e+01
2.771082085919e+01
2.682503254017e+01
2.697872381001e+01
2.683993962702e+01
2.684009556087e+01
2.697755111739e+01
2.682486364871e+01
2.711136532673e+01
2.693825661580e+01
2.710967931418e+01
2.694470240452e+01
2.711058200008e+01
2.694149453145e+01
2.710760754118e+01
2.693482287730e+01
3.971327924458e+01
2.672012391280e+01
2.671988478203e+01
2.672005120101e+01
2.671425820518e+01
2.955895287666e+01
2.952581903087e+01
2.940177077754e+01
2.973418634140e+01
2.685115504468e+01
2.711078533929e+01
2.761978944254e+01
2.761362661735e+01
2.709768377767e+01
2.685445185672e+01
2.685613413030e+01
2.699437433347e+01
2.687011266825e+01
2.685072576213e+01
2.711008615163e+01
2.761390286659e+01
2.685751527650e+01
2.699619152779e+01
2.686730089618e+01
2.684113487201e+01
2.712487099988e+01
2.763013349412e+01
2.685642450103e+01
2.699568776235e+01
2.686940464794e+01
2.686957070433e+01
2.699463735485e+01
2.685611664921e+01
2.711548878975e+01
2.695853125041e+01
2.711396740501e+01
2.696447733082e+01
2.711477199827e+01
2.696134617268e+01
2.711214185985e+01
2.695538989999e+01
3.828128246313e+01
2.674863737309e+01
2.674848650382e+01
2.674897013485e+01
2.674290594911e+01
2.925248276280e+01
2.922337054080e+01
2.910995901473e+01
2.941422723126e+01
2.686832958215e+01
2.710024761336e+01
2.754000222873e+01
2.753380218057e+01
2.708902417404e+01
2.687133058537e+01
2.687336079414e+01
2.699959385791e+01
2.688550725515e+01
2.686794398772e+01
2.709970898845e+01
2.753503263578e+01
2.687473004880e+01
2.700124215775e+01
2.688297371819e+01
2.685928422878e+01
2.711245772328e+01
2.755041587810e+01
2.687373202768e+01
2.700077345495e+01
2.688487490176e+01
2.688505716388e+01
2.699981119674e+01
2.687331422659e+01
2.710843300932e+01
2.696598854614e+01
2.710704322698e+01
2.697153986799e+01
2.710774764193e+01
2.696843465900e+01
2.710542285359e+01
2.696311769995e+01
3.718904576991e+01
2.676315017269e+01
2.676306510188e+01
2.676379350409e+01
2.675753510662e+01
2.902050785424e+01
2.899414955561e+01
2.888782316010e+01
2.917334608827e+01
2.687389638988e+01
2.708343227414e+01
2.746976129329e+01
2.746337763144e+01
2.707365427050e+01
2.687669203647e+01
2.687915097468e+01
2.699578657465e+01
2.688973537850e+01
2.687354379215e+01
2.708301701065e+01
2.746544367961e+01
2.688050225013e+01
2.699731035551e+01
2.688742438578e+01
2.686558277541e+01
2.709419530595e+01
2.748039062440e+01
2.687958256127e+01
2.699687031461e+01
2.688914903690e+01
2.688934976108e+01
2.699596842363e+01
2.687908458917e+01
2.709405682583e+01
2.696376533321e+01
2.709277291806e+01
2.696900914707e+01
2.709339648478e+01
2.696591576605e+01
2.709131012959e+01
2.696112217375e+01
3.641649616122e+01
2.675830805283e+01
2.675826910545e+01
2.675919015996e+01
2.675278388206e+01
2.884947735941e+01
2.882464161510e+01
2.872191446178e+01
2.899790269181e+01
2.686222470513e+01
2.705363106927e+01
2.739987487248e+01
2.739311589570e+01
2.704493181532e+01
2.686490836274e+01
2.686795287055e+01
2.697707197514e+01
2.687713411599e+01
2.686189356100e+01
2.705330982524e+01
2.739596078277e+01
2.686927935094e+01
2.697851166500e+01
2.687499947968e+01
2.685441651100e+01
2.706331521935e+01
2.741091706181e+01
2.686842576744e+01
2.697809451787e+01
2.687656432225e+01
2.687678823187e+01
2.697722601085e+01
2.686787379928e+01
2.706582506383e+01
2.694594042242e+01
2.706462781256e+01
2.695096022697e+01
2.706519085758e+01
2.694785086198e+01
2.706328359074e+01
2.694349204994e+01
3.593945721403e+01
2.669908123183e+01
2.669907667992e+01
2.670020398991e+01
2.669362434669e+01
2.868119473244e+01
2.865648301012e+01
2.855293909263e+01
2.883105144582e+01
2.679681732223e+01
2.696884858948e+01
2.727792444201e+01
2.727024815435e+01
2.696113593860e+01
2.679950163677e+01
2.680375477663e+01
2.690564007898e+01
2.681111748392e+01
2.679649563554e+01
2.696862219581e+01
2.727420002085e+01
2.680503789454e+01
2.690702785053e+01
2.680916156627e+01
2.678935687208e+01
2.697755700239e+01
2.728998756889e+01
2.680425905753e+01
2.690663529221e+01
2.681051914602e+01
2.681078696511e+01
2.690576592517e+01
2.680366805901e+01
2.698217360114e+01
2.687444701962e+01
2.698106946501e+01
2.687930261195e+01
2.698158021079e+01
2.687609380875e+01
2.697983501386e+01
2.687222450407e+01
3.571805891502e+01
2.647813358298e+01
2.647815532909e+01
2.647967243931e+01
2.647276681706e+01
2.836781691047e+01
2.834028230839e+01
2.822609885673e+01
2.853232621605e+01
2.656606169936e+01
2.670009996939e+01
2.694411316932e+01
2.693360452663e+01
2.669407756659e+01
2.656895804634e+01
2.657677236822e+01
2.666631963575e+01
2.658000224032e+01
2.656573383546e+01
2.670005455694e+01
2.694042894689e+01
2.657793968599e+01
2.666767546266e+01
2.657837501940e+01
2.655895391104e+01
2.670716369939e+01
2.695953063555e+01
2.657731865262e+01
2.666734391554e+01
2.657925570601e+01
2.657964234804e+01
2.666639837660e+01
2.657669015021e+01
2.671526758796e+01
2.663288067487e+01
2.671433075485e+01
2.663759057859e+01
2.671474126744e+01
2.663399850073e+01
2.671327815058e+01
2.663113457559e+01
3.578401644738e+01
2.640850863651e+01
2.640854540860e+01
2.641018434861e+01
2.640315565514e+01
2.826125971993e+01
2.823320934099e+01
2.811660444567e+01
2.842920733454e+01
2.649347844140e+01
2.661629407994e+01
2.684049880073e+01
2.682923511460e+01
2.661078867577e+01
2.649642601180e+01
2.650525203870e+01
2.659110513727e+01
2.650728120813e+01
2.649314932347e+01
2.661630485851e+01
2.683683989527e+01
2.650639075856e+01
2.659245094489e+01
2.650575311553e+01
2.648648838743e+01
2.662285164382e+01
2.685677638963e+01
2.650581466905e+01
2.659213425533e+01
2.650649468645e+01
2.650691697808e+01
2.659116834315e+01
2.650516701389e+01
2.663207484200e+01
2.655707579956e+01
2.663119175367e+01
2.656173680201e+01
2.663157868201e+01
2.655803270712e+01
2.663019694516e+01
2.655546493260e+01
3.575713673563e+01
2.636805879192e+01
2.636811850901e+01
2.636995504812e+01
2.636277914716e+01
2.816098891639e+01
2.813180643469e+01
2.801073273491e+01
2.833513503960e+01
2.644733164557e+01
2.655026631235e+01
2.674067988408e+01
2.672809162948e+01
2.654564650776e+01
2.645035753127e+01
2.646082076242e+01
2.653966945348e+01
2.646079133745e+01
2.644700677710e+01
2.655036226356e+01
2.673706965799e+01
2.646189903380e+01
2.654098948022e+01
2.645943908367e+01
2.644058240602e+01
2.655594427339e+01
2.675850274050e+01
2.646140867352e+01
2.654070366591e+01
2.645994107040e+01
2.646042393547e+01
2.653971109091e+01
2.646073784310e+01
2.656667803756e+01
2.650493319436e+01
2.656588047103e+01
2.650946768815e+01
2.656620576925e+01
2.650562038855e+01
2.656498164774e+01
2.650357317545e+01
3.579009750431e+01
2.649016437143e+01
2.649020900425e+01
2.649242416818e+01
2.648504284296e+01
2.811775328192e+01
2.808737290661e+01
2.796088852927e+01
2.829950837972e+01
2.656048623719e+01
2.662590375348e+01
2.674430155568e+01
2.672949050011e+01
2.662314023231e+01
2.656372472373e+01
2.657803357557e+01
2.664574996416e+01
2.657392759292e+01
2.656011598442e+01
2.662619420829e+01
2.674095140331e+01
2.657894422185e+01
2.664700483776e+01
2.657287898689e+01
2.655417643297e+01
2.662983284405e+01
2.676477359203e+01
2.657858179726e+01
2.664680817254e+01
2.657293673075e+01
2.657353245250e+01
2.664575451352e+01
2.657794820401e+01
2.664594657225e+01
2.660806791596e+01
2.664531547450e+01
2.661253752669e+01
2.664563110607e+01
2.660822170102e+01
2.664469119227e+01
2.660717809191e+01
3.585495481905e+01
2.699755035776e+01
2.699745740316e+01
2.699996965750e+01
2.699298872039e+01
2.840477919252e+01
2.837277149840e+01
2.823871336743e+01
2.859757970704e+01
2.705585073443e+01
2.707197472712e+01
2.709524474791e+01
2.707750220347e+01
2.707165612538e+01
2.705936207089e+01
2.707894979909e+01
2.713208338698e+01
2.706964059793e+01
2.705539392908e+01
2.707249699070e+01
2.709235891995e+01
2.707952240273e+01
2.713322434018e+01
2.706896694866e+01
2.705022818970e+01
2.707362769214e+01
2.711945982413e+01
2.707933399589e+01
2.713321040185e+01
2.706843606761e+01
2.706915379318e+01
2.713207532376e+01
2.707890970775e+01
2.709684691535e+01
2.709024796661e+01
2.709638435498e+01
2.709464416290e+01
2.709666684532e+01
2.708977628899e+01
2.709615373925e+01
2.709004183210e+01
3.611214037099e+01
2.792312478526e+01
2.792317998257e+01
2.792443724770e+01
2.792049845640e+01
2.908590196748e+01
2.906423117834e+01
2.896836371081e+01
2.922524713959e+01
2.795600660997e+01
2.798281519836e+01
2.806177697599e+01
2.805022483322e+01
2.798118898189e+01
2.795786014505e+01
2.796547168260e+01
2.799524106822e+01
2.796236656392e+01
2.795591343514e+01
2.798294662936e+01
2.805913021501e+01
2.796597170437e+01
2.799599448604e+01
2.796188610844e+01
2.795249368326e+01
2.798500066445e+01
2.807727234170e+01
2.796594175984e+01
2.799589993186e+01
2.796175454711e+01
2.796213848366e+01
2.799528915151e+01
2.796553101361e+01
2.798713369563e+01
2.797673616146e+01
2.798666224327e+01
2.797879396927e+01
2.798638107939e+01
2.797688081440e+01
2.798608224095e+01
2.797650292179e+01
3.552565123644e+01
2.818293585023e+01
2.818322675864e+01
2.818419253402e+01
2.818060319539e+01
2.837835590736e+01
2.837595927788e+01
2.838335699090e+01
2.836120120176e+01
2.820677717963e+01
2.823291089970e+01
2.828254438211e+01
2.828439184587e+01
2.823117554083e+01
2.820789428732e+01
2.821121838544e+01
2.823394695753e+01
2.821001898142e+01
2.820655583873e+01
2.823286624009e+01
2.828114482365e+01
2.821160688566e+01
2.823428501652e+01
2.820972498867e+01
2.820443797057e+01
2.823475430738e+01
2.827840543176e+01
2.821121376610e+01
2.823395250370e+01
2.820990436223e+01
2.821007311885e+01
2.823374775375e+01
2.821085642000e+01
2.823787557847e+01
2.822331778654e+01
2.823826069284e+01
2.822462618441e+01
2.823934906791e+01
2.822306305178e+01
2.823838589669e+01
2.822265491728e+01
2.720683032596e+01
2.843984637884e+01
2.844010313417e+01
2.844065140545e+01
2.843829717081e+01
2.846318001371e+01
2.846486881439e+01
2.846798071607e+01
2.845997711975e+01
2.845383773147e+01
2.847598467259e+01
2.849195770180e+01
2.849265939965e+01
2.847554800120e+01
2.845398828783e+01
2.845431269979e+01
2.846907831025e+01
2.845529886134e+01
2.845383365588e+01
2.847602122656e+01
2.849215075274e+01
2.845478926854e+01
2.846930757953e+01
2.845509193824e+01
2.845297096751e+01
2.847639836105e+01
2.849116048331e+01
2.845462260418e+01
2.846913316918e+01
2.845527304523e+01
2.845535013619e+01
2.846900424706e+01
2.845415505932e+01
2.848239638409e+01
2.846492087986e+01
2.848240216375e+01
2.846569444309e+01
2.848264094951e+01
2.846491087725e+01
2.848230050378e+01
2.846441388853e+01
2.869084394442e+01
2.868563389727e+01
2.868587330153e+01
2.868627093795e+01
2.868457682111e+01
2.872564762431e+01
2.872553208575e+01
2.872444176602e+01
2.872742605901e+01
2.869176499247e+01
2.870519290622e+01
2.871567306759e+01
2.871567353834e+01
2.870497056468e+01
2.869169302300e+01
2.869056967543e+01
2.869723421825e+01
2.869157948610e+01
2.869184073859e+01
2.870523047911e+01
2.871586089924e+01
2.869097526082e+01
2.869735865418e+01
2.869149888559e+01
2.869137197918e+01
2.870535180637e+01
2.871595115674e+01
2.869091416756e+01
2.869721448939e+01
2.869164233412e+01
2.869166552569e+01
2.869717557784e+01
2.869048037255e+01
2.870790549057e+01
2.869708311674e+01
2.870788703799e+01
2.869735430046e+01
2.870784480914e+01
2.869708944582e+01
2.870769300371e+01
2.869673739461e+01
2.868286528109e+01
2.891367752274e+01
2.891387602394e+01
2.891407139894e+01
2.891310735258e+01
2.892656206953e+01
2.892670248525e+01
2.892708008171e+01
2.892603168606e+01
2.891408344839e+01
2.891862259173e+01
2.892488894963e+01
2.892497916505e+01
2.891848367428e+01
2.891392391315e+01
2.891262252526e+01
2.891304381533e+01
2.891321164917e+01
2.891417652435e+01
2.891862729759e+01
2.892492638566e+01
2.891289678311e+01
2.891311430195e+01
2.891323327250e+01
2.891398745010e+01
2.891860584615e+01
2.892471225841e+01
2.891289651370e+01
2.891299926130e+01
2.891326852778e+01
2.891327563313e+01
2.891299063034e+01
2.891256500684e+01
2.891814137208e+01
2.891475548912e+01
2.891817574101e+01
2.891469968822e+01
2.891808553821e+01
2.891473036667e+01
2.891801149643e+01
2.891458106202e+01
2.893103266508e+01
2.958723407293e+01
2.958727013671e+01
2.958723594072e+01
2.958724356519e+01
2.957793999187e+01
2.957789156259e+01
2.957775083876e+01
2.957808228937e+01
2.958527218421e+01
2.958181415282e+01
2.957866730547e+01
2.957855651208e+01
2.958187350837e+01
2.958520218583e+01
2.958512417995e+01
2.958290324318e+01
2.958493926742e+01
2.958530257117e+01
2.958181639916e+01
2.957864898570e+01
2.958515744948e+01
2.958292069292e+01
2.958499752512e+01
2.958534128355e+01