# vtk DataFile Version 3.0
Unstructured Grid from OpenGeoSys
ASCII
DATASET UNSTRUCTURED_GRID
FIELD TimesAndCycles 2
TIME 1 1 double
3.600000000000e+03
CYLCE 1 1 long
1
POINTS 1394 double
0.000000000000e+00 0.000000000000e+00 0.000000000000e+00
5.000000000000e+00 0.000000000000e+00 0.000000000000e+00
5.000000000000e+00 5.000000000000e+00 0.000000000000e+00
0.000000000000e+00 5.000000000000e+00 0.000000000000e+00
2.244234909000e+00 2.244234909000e+00 0.000000000000e+00
2.755765091000e+00 2.244234909000e+00 0.000000000000e+00
2.755765091000e+00 2.755765091000e+00 0.000000000000e+00
2.244234909000e+00 2.755765091000e+00 0.000000000000e+00
7.141316008320e-01 7.141316008320e-01 0.000000000000e+00
1.314642334730e+00 1.314642334730e+00 0.000000000000e+00
1.819609643610e+00 1.819609643610e+00 0.000000000000e+00
1.819609643610e+00 3.180390356390e+00 0.000000000000e+00
1.314642334740e+00 3.685357665260e+00 0.000000000000e+00
7.141316008360e-01 4.285868399160e+00 0.000000000000e+00
0.000000000000e+00 3.750000000000e+00 0.000000000000e+00
0.000000000000e+00 2.500000000000e+00 0.000000000000e+00
0.000000000000e+00 1.250000000000e+00 0.000000000000e+00
4.285868399170e+00 7.141316008320e-01 0.000000000000e+00
3.685357665270e+00 1.314642334730e+00 0.000000000000e+00
3.180390356390e+00 1.819609643610e+00 0.000000000000e+00
1.250000000000e+00 0.000000000000e+00 0.000000000000e+00
2.500000000000e+00 0.000000000000e+00 0.000000000000e+00
3.750000000000e+00 0.000000000000e+00 0.000000000000e+00
4.285868399170e+00 4.285868399170e+00 0.000000000000e+00
3.685357665270e+00 3.685357665270e+00 0.000000000000e+00
3.180390356390e+00 3.180390356390e+00 0.000000000000e+00
5.000000000000e+00 1.250000000000e+00 0.000000000000e+00
5.000000000000e+00 2.500000000000e+00 0.000000000000e+00
5.000000000000e+00 3.750000000000e+00 0.000000000000e+00
3.750000000000e+00 5.000000000000e+00 0.000000000000e+00
2.500000000000e+00 5.000000000000e+00 0.000000000000e+00
1.250000000000e+00 5.000000000000e+00 0.000000000000e+00
9.560744151940e-01 2.677827143250e+00 0.000000000000e+00
6.659597640160e-01 1.438876720610e+00 0.000000000000e+00
2.309219871940e+00 9.522638293400e-01 0.000000000000e+00
3.458157207860e+00 6.354750772000e-01 0.000000000000e+00
4.043925584810e+00 2.322172856750e+00 0.000000000000e+00
4.334040235980e+00 3.561123279390e+00 0.000000000000e+00
2.318530875810e+00 4.048536535600e+00 0.000000000000e+00
3.552396921680e+00 4.370927842320e+00 0.000000000000e+00
2.500000000000e+00 2.500000000000e+00 0.000000000000e+00
0.000000000000e+00 0.000000000000e+00 -5.000000000000e-01
5.000000000000e+00 0.000000000000e+00 -5.000000000000e-01
5.000000000000e+00 5.000000000000e+00 -5.000000000000e-01
0.000000000000e+00 5.000000000000e+00 -5.000000000000e-01
2.244234909000e+00 2.244234909000e+00 -5.000000000000e-01
2.755765091000e+00 2.244234909000e+00 -5.000000000000e-01
2.755765091000e+00 2.755765091000e+00 -5.000000000000e-01
2.244234909000e+00 2.755765091000e+00 -5.000000000000e-01
7.141316008320e-01 7.141316008320e-01 -5.000000000000e-01
1.314642334730e+00 1.314642334730e+00 -5.000000000000e-01
1.819609643610e+00 1.819609643610e+00 -5.000000000000e-01
1.819609643610e+00 3.180390356390e+00 -5.000000000000e-01
1.314642334740e+00 3.685357665260e+00 -5.000000000000e-01
7.141316008360e-01 4.285868399160e+00 -5.000000000000e-01
0.000000000000e+00 3.750000000000e+00 -5.000000000000e-01
0.000000000000e+00 2.500000000000e+00 -5.000000000000e-01
0.000000000000e+00 1.250000000000e+00 -5.000000000000e-01
4.285868399170e+00 7.141316008320e-01 -5.000000000000e-01
3.685357665270e+00 1.314642334730e+00 -5.000000000000e-01
3.180390356390e+00 1.819609643610e+00 -5.000000000000e-01
1.250000000000e+00 0.000000000000e+00 -5.000000000000e-01
2.500000000000e+00 0.000000000000e+00 -5.000000000000e-01
3.750000000000e+00 0.000000000000e+00 -5.000000000000e-01
4.285868399170e+00 4.285868399170e+00 -5.000000000000e-01
3.685357665270e+00 3.685357665270e+00 -5.000000000000e-01
3.180390356390e+00 3.180390356390e+00 -5.000000000000e-01
5.000000000000e+00 1.250000000000e+00 -5.000000000000e-01
5.000000000000e+00 2.500000000000e+00 -5.000000000000e-01
5.000000000000e+00 3.750000000000e+00 -5.000000000000e-01
3.750000000000e+00 5.000000000000e+00 -5.000000000000e-01
2.500000000000e+00 5.000000000000e+00 -5.000000000000e-01
1.250000000000e+00 5.000000000000e+00 -5.000000000000e-01
9.560744151940e-01 2.677827143250e+00 -5.000000000000e-01
6.659597640160e-01 1.438876720610e+00 -5.000000000000e-01
2.309219871940e+00 9.522638293400e-01 -5.000000000000e-01
3.458157207860e+00 6.354750772000e-01 -5.000000000000e-01
4.043925584810e+00 2.322172856750e+00 -5.000000000000e-01
4.334040235980e+00 3.561123279390e+00 -5.000000000000e-01
2.318530875810e+00 4.048536535600e+00 -5.000000000000e-01
3.552396921680e+00 4.370927842320e+00 -5.000000000000e-01
2.500000000000e+00 2.500000000000e+00 -5.000000000000e-01
0.000000000000e+00 0.000000000000e+00 -1.000000000000e+00
5.000000000000e+00 0.000000000000e+00 -1.000000000000e+00
5.000000000000e+00 5.000000000000e+00 -1.000000000000e+00
0.000000000000e+00 5.000000000000e+00 -1.000000000000e+00
2.244234909000e+00 2.244234909000e+00 -1.000000000000e+00
2.755765091000e+00 2.244234909000e+00 -1.000000000000e+00
2.755765091000e+00 2.755765091000e+00 -1.000000000000e+00
2.244234909000e+00 2.755765091000e+00 -1.000000000000e+00
7.141316008320e-01 7.141316008320e-01 -1.000000000000e+00
1.314642334730e+00 1.314642334730e+00 -1.000000000000e+00
1.819609643610e+00 1.819609643610e+00 -1.000000000000e+00
1.819609643610e+00 3.180390356390e+00 -1.000000000000e+00
1.314642334740e+00 3.685357665260e+00 -1.000000000000e+00
7.141316008360e-01 4.285868399160e+00 -1.000000000000e+00
0.000000000000e+00 3.750000000000e+00 -1.000000000000e+00
0.000000000000e+00 2.500000000000e+00 -1.000000000000e+00
0.000000000000e+00 1.250000000000e+00 -1.000000000000e+00
4.285868399170e+00 7.141316008320e-01 -1.000000000000e+00
3.685357665270e+00 1.314642334730e+00 -1.000000000000e+00
3.180390356390e+00 1.819609643610e+00 -1.000000000000e+00
1.250000000000e+00 0.000000000000e+00 -1.000000000000e+00
2.500000000000e+00 0.000000000000e+00 -1.000000000000e+00
3.750000000000e+00 0.000000000000e+00 -1.000000000000e+00
4.285868399170e+00 4.285868399170e+00 -1.000000000000e+00
3.685357665270e+00 3.685357665270e+00 -1.000000000000e+00
3.180390356390e+00 3.180390356390e+00 -1.000000000000e+00
5.000000000000e+00 1.250000000000e+00 -1.000000000000e+00
5.000000000000e+00 2.500000000000e+00 -1.000000000000e+00
5.000000000000e+00 3.750000000000e+00 -1.000000000000e+00
3.750000000000e+00 5.000000000000e+00 -1.000000000000e+00
2.500000000000e+00 5.000000000000e+00 -1.000000000000e+00
1.250000000000e+00 5.000000000000e+00 -1.000000000000e+00
9.560744151940e-01 2.677827143250e+00 -1.000000000000e+00
6.659597640160e-01 1.438876720610e+00 -1.000000000000e+00
2.309219871940e+00 9.522638293400e-01 -1.000000000000e+00
3.458157207860e+00 6.354750772000e-01 -1.000000000000e+00
4.043925584810e+00 2.322172856750e+00 -1.000000000000e+00
4.334040235980e+00 3.561123279390e+00 -1.000000000000e+00
2.318530875810e+00 4.048536535600e+00 -1.000000000000e+00
3.552396921680e+00 4.370927842320e+00 -1.000000000000e+00
2.500000000000e+00 2.500000000000e+00 -1.000000000000e+00
0.000000000000e+00 0.000000000000e+00 -3.000000000000e+00
5.000000000000e+00 0.000000000000e+00 -3.000000000000e+00
5.000000000000e+00 5.000000000000e+00 -3.000000000000e+00
0.000000000000e+00 5.000000000000e+00 -3.000000000000e+00
2.244234909000e+00 2.244234909000e+00 -3.000000000000e+00
2.755765091000e+00 2.244234909000e+00 -3.000000000000e+00
2.755765091000e+00 2.755765091000e+00 -3.000000000000e+00
2.244234909000e+00 2.755765091000e+00 -3.000000000000e+00
7.141316008320e-01 7.141316008320e-01 -3.000000000000e+00
1.314642334730e+00 1.314642334730e+00 -3.000000000000e+00
1.819609643610e+00 1.819609643610e+00 -3.000000000000e+00
1.819609643610e+00 3.180390356390e+00 -3.000000000000e+00
1.314642334740e+00 3.685357665260e+00 -3.000000000000e+00
7.141316008360e-01 4.285868399160e+00 -3.000000000000e+00
0.000000000000e+00 3.750000000000e+00 -3.000000000000e+00
0.000000000000e+00 2.500000000000e+00 -3.000000000000e+00
0.000000000000e+00 1.250000000000e+00 -3.000000000000e+00
4.285868399170e+00 7.141316008320e-01 -3.000000000000e+00
3.685357665270e+00 1.314642334730e+00 -3.000000000000e+00
3.180390356390e+00 1.819609643610e+00 -3.000000000000e+00
1.250000000000e+00 0.000000000000e+00 -3.000000000000e+00
2.500000000000e+00 0.000000000000e+00 -3.000000000000e+00
3.750000000000e+00 0.000000000000e+00 -3.000000000000e+00
4.285868399170e+00 4.285868399170e+00 -3.000000000000e+00
3.685357665270e+00 3.685357665270e+00 -3.000000000000e+00
3.180390356390e+00 3.180390356390e+00 -3.000000000000e+00
5.000000000000e+00 1.250000000000e+00 -3.000000000000e+00
5.000000000000e+00 2.500000000000e+00 -3.000000000000e+00
5.000000000000e+00 3.750000000000e+00 -3.000000000000e+00
3.750000000000e+00 5.000000000000e+00 -3.000000000000e+00
2.500000000000e+00 5.000000000000e+00 -3.000000000000e+00
1.250000000000e+00 5.000000000000e+00 -3.000000000000e+00
9.560744151940e-01 2.677827143250e+00 -3.000000000000e+00
6.659597640160e-01 1.438876720610e+00 -3.000000000000e+00
2.309219871940e+00 9.522638293400e-01 -3.000000000000e+00
3.458157207860e+00 6.354750772000e-01 -3.000000000000e+00
4.043925584810e+00 2.322172856750e+00 -3.000000000000e+00
4.334040235980e+00 3.561123279390e+00 -3.000000000000e+00
2.318530875810e+00 4.048536535600e+00 -3.000000000000e+00
3.552396921680e+00 4.370927842320e+00 -3.000000000000e+00
2.500000000000e+00 2.500000000000e+00 -3.000000000000e+00
0.000000000000e+00 0.000000000000e+00 -5.000000000000e+00
5.000000000000e+00 0.000000000000e+00 -5.000000000000e+00
5.000000000000e+00 5.000000000000e+00 -5.000000000000e+00
0.000000000000e+00 5.000000000000e+00 -5.000000000000e+00
2.244234909000e+00 2.244234909000e+00 -5.000000000000e+00
[...]
POINT_DATA 1394
SCALARS TEMPERATURE1 double 1
LOOKUP_TABLE default
1.000000000000e+01
1.000000000000e+01
1.000000000000e+01
1.000000000000e+01
1.000000000000e+01
1.000000000000e+01
1.000000000000e+01
1.000000000000e+01
1.000000000000e+01
1.000000000000e+01
1.000000000000e+01
1.000000000000e+01
1.000000000000e+01
1.000000000000e+01
1.000000000000e+01
1.000000000000e+01
1.000000000000e+01
1.000000000000e+01
1.000000000000e+01
1.000000000000e+01
1.000000000000e+01
1.000000000000e+01
1.000000000000e+01
1.000000000000e+01
1.000000000000e+01
1.000000000000e+01
1.000000000000e+01
1.000000000000e+01
1.000000000000e+01
1.000000000000e+01
1.000000000000e+01
1.000000000000e+01
1.000000000000e+01
1.000000000000e+01
1.000000000000e+01
1.000000000000e+01
1.000000000000e+01
1.000000000000e+01
1.000000000000e+01
1.000000000000e+01
1.000000000000e+01
1.642871320761e+01
1.642791599068e+01
1.642172639019e+01
1.642488029120e+01
2.057564395834e+01
2.059690097630e+01
2.058640133024e+01
2.062862357949e+01
1.665417523089e+01
1.738198015672e+01
1.877321815417e+01
1.879973749116e+01
1.734736424762e+01
1.665346017275e+01
1.660282629982e+01
1.686690192840e+01
1.667204036725e+01
1.665419296632e+01
1.737883547113e+01
1.876453198649e+01
1.660517093355e+01
1.686890078643e+01
1.666522809241e+01
1.664156043345e+01
1.741683055170e+01
1.874116291305e+01
1.660255461796e+01
1.686778565406e+01
1.667313439448e+01
1.667164050579e+01
1.686792712159e+01
1.660319770664e+01
1.733779142825e+01
1.687821137279e+01
1.733363484524e+01
1.688379901703e+01
1.733452341122e+01
1.688878678776e+01
1.732921792760e+01
1.687006867154e+01
1.905581755844e+01
2.335297430257e+01
2.335250501967e+01
2.333452377992e+01
2.334678068262e+01
3.104950307115e+01
3.104627152589e+01
3.149482988484e+01
3.026500018116e+01
2.381876133352e+01
2.549128494262e+01
2.895517556250e+01
2.909113313220e+01
2.539394411239e+01
2.381774711464e+01
2.368146479289e+01
2.423105593596e+01
2.384376954481e+01
2.381799654844e+01
2.548080740532e+01
2.893381316783e+01
2.368508451550e+01
2.423398771899e+01
2.382978608660e+01
2.378946676505e+01
2.558378449958e+01
2.877839364130e+01
2.367726921103e+01
2.422962304589e+01
2.384937649713e+01
2.384484168580e+01
2.423205226243e+01
2.367984776893e+01
2.531021284867e+01
2.429968934426e+01
2.530722862385e+01
2.430632268463e+01
2.531766732309e+01
2.432019982957e+01
2.529899290867e+01
2.427798136627e+01
4.081589257336e+01
2.722272581344e+01
2.722168002944e+01
2.720410069170e+01
2.721451653004e+01
3.467911098161e+01
3.472681448251e+01
3.508022780656e+01
3.412530304550e+01
2.774901340825e+01
2.956628988789e+01
3.294122575286e+01
3.306136505348e+01
2.947598960674e+01
2.774485158316e+01
2.760018448076e+01
2.823175189238e+01
2.778107285783e+01
2.774843671672e+01
2.955812935615e+01
3.292644712823e+01
2.760537143179e+01
2.823489499702e+01
2.776541814035e+01
2.772173419901e+01
2.965568343674e+01
3.279458131306e+01
2.759764689522e+01
2.823128123907e+01
2.778696316032e+01
2.778200099375e+01
2.823351240163e+01
2.759946742889e+01
2.945677159700e+01
2.829254809297e+01
2.945027440060e+01
2.830283037146e+01
2.945723895744e+01
2.831571511329e+01
2.944086478589e+01
2.826918430874e+01
4.298417999653e+01
2.950263055336e+01
2.950131474399e+01
2.948564967908e+01
2.949483497935e+01
3.673931567972e+01
3.676450388039e+01
3.705990136135e+01
3.626048493092e+01
2.999595728805e+01
3.165431142272e+01
3.475293218751e+01
3.485965195917e+01
3.157097299652e+01
2.999356246844e+01
2.986704766954e+01
3.045490186102e+01
3.002895496466e+01
2.999521855776e+01
3.164657981647e+01
3.473890660953e+01
2.987148957946e+01
3.045782803882e+01
3.001442330016e+01
2.996951173097e+01
3.173698404460e+01
3.462407783596e+01
2.986429604678e+01
3.045464372023e+01
3.003403968557e+01
3.002961746214e+01
3.045652871129e+01
2.986643304388e+01
3.155685677591e+01
3.049908107069e+01
3.155089769952e+01
3.050953715976e+01
3.155763582635e+01
3.052023700885e+01
3.154246753227e+01
3.047795908456e+01
4.419590761236e+01
3.077007871051e+01
3.076869343362e+01
3.075386208303e+01
3.076269513422e+01
3.803436831544e+01
3.805583305389e+01
3.828985202440e+01
3.765902267988e+01
3.124332093562e+01
3.282790255327e+01
3.579177167398e+01
3.588701594232e+01
3.274895470084e+01
3.124109030398e+01
3.112127196412e+01
3.168448951260e+01
3.127574631503e+01
3.124272989580e+01
3.282062709693e+01
3.577807828643e+01
3.112558912892e+01
3.168743339926e+01
3.126174361374e+01
3.121795350103e+01
3.290647231527e+01
3.567821620236e+01
3.111892708869e+01
3.168454739297e+01
3.128036084080e+01
3.127622955994e+01
3.168619353514e+01
3.112094092861e+01
3.273542072861e+01
3.172484253027e+01
3.272916413267e+01
3.173507044513e+01
3.273476362153e+01
3.174542808696e+01
3.272080464308e+01
3.170497682556e+01
4.512160052186e+01
3.143959921687e+01
3.143811077279e+01
3.142384691053e+01
3.143241108866e+01
3.899611401146e+01
3.900709294380e+01
3.917517668550e+01
3.872492809836e+01
3.190185256802e+01
3.344299454359e+01
3.633345139004e+01
3.641814667408e+01
3.336667276436e+01
3.189983077907e+01
3.178441578603e+01
3.233360691887e+01
3.193432905441e+01
3.190145848990e+01
3.343590743729e+01
3.632013640631e+01
3.178874793653e+01
3.233664986702e+01
3.192057883404e+01
3.187697667289e+01
3.351902976502e+01
3.623526817168e+01
3.178252577598e+01
3.233402275018e+01
3.193854124887e+01
3.193463028990e+01
3.233543872654e+01
3.178440274284e+01
3.335274460130e+01
3.237083269119e+01
3.334600764679e+01
3.238106133893e+01
3.335039172393e+01
3.239126831864e+01
3.333742053497e+01
3.235186259771e+01
4.563054346688e+01
3.175864607487e+01
3.175738718645e+01
3.174327925024e+01
3.175161952207e+01
3.853111436754e+01
3.855193738653e+01
3.879379999063e+01
3.814031481700e+01
3.220680812396e+01
3.370974290066e+01
3.652508629770e+01
3.661830964232e+01
3.363440877541e+01
3.220474609633e+01
3.209073154514e+01
3.262412205494e+01
3.223719167227e+01
3.220618886823e+01
3.370276906763e+01
3.651202942751e+01
3.209476927197e+01
3.262685255790e+01
3.222395579986e+01
3.218269553469e+01
3.378460554387e+01
3.641311476015e+01
3.208835394966e+01
3.262404110071e+01
3.224167051703e+01
3.223772134530e+01
3.262567396506e+01
3.209030222274e+01
3.362073610579e+01
3.266309966821e+01
3.361505936308e+01
3.267267864826e+01
3.362076985610e+01
3.268246547865e+01
3.360727082114e+01
3.264413502456e+01
4.518500985962e+01
3.200071879513e+01
3.199926923513e+01
3.198576065881e+01
3.199404267915e+01
3.910799690541e+01
3.911558848089e+01
3.927837661461e+01
3.884125389350e+01
3.243634053204e+01
3.388270295900e+01
3.660153277988e+01
3.668199823460e+01
3.381063146165e+01
3.243464754987e+01
3.232738334105e+01
3.284434602161e+01
3.246762319458e+01
3.243590781155e+01
3.387596991451e+01
3.658894128536e+01
3.233135414128e+01
3.284721796691e+01
3.245471148642e+01
3.241274661731e+01
3.395441886339e+01
3.650812530617e+01
3.232546637827e+01
3.284475282901e+01
3.247153207956e+01
3.246786514555e+01
3.284604989775e+01
3.232733864125e+01
3.379756619152e+01
3.287742886022e+01
3.379136019780e+01
3.288716218110e+01
3.379571050366e+01
3.289652795902e+01
3.378337706389e+01
3.285960508706e+01
4.478236088504e+01
3.191403303806e+01
3.191252445784e+01
3.189918233248e+01
3.190779298030e+01
3.897783567097e+01
3.898412258698e+01
3.912346410847e+01
3.875094714360e+01
3.233865559270e+01
3.374627853977e+01
3.639737572488e+01
3.647317943995e+01
3.367623034977e+01
3.233699014221e+01
3.223353236050e+01
3.273719304776e+01
3.237001647770e+01
3.233828271570e+01
3.373971954772e+01
3.638503875268e+01
3.223738058495e+01
3.274009535770e+01
3.235740648720e+01
3.231567767179e+01
3.381594712297e+01
3.631011610548e+01
3.223175926272e+01
3.273778695469e+01
3.237363817820e+01
3.237011101774e+01
3.273892819691e+01
3.223361883208e+01
3.366282445283e+01
3.276812276967e+01
3.365655583203e+01
3.277771890467e+01
3.366044487807e+01
3.278688466208e+01
3.364865197670e+01
3.275094221173e+01
4.436950353634e+01
3.170979454280e+01
3.170827361541e+01
3.169496226406e+01
3.170395432700e+01
3.868694094427e+01
3.869238159685e+01
3.882210508188e+01
3.847603790995e+01
3.212460477828e+01
3.350228610411e+01
3.610346637826e+01
3.617693988485e+01
3.343358889255e+01
3.212289101969e+01
3.202190365094e+01
3.251400357399e+01
3.215569914981e+01
3.212427925998e+01
3.349581834022e+01
3.609138338745e+01
3.202564917074e+01
3.251691093236e+01
3.214335745588e+01
3.210218041056e+01
3.357047115654e+01
3.601920287417e+01
3.202021560985e+01
3.251469491067e+01
3.215914326087e+01
3.215570375080e+01
3.251574230269e+01
3.202205561230e+01
3.341896784791e+01
3.254430720323e+01
3.341274704962e+01
3.255367384450e+01
3.341638203089e+01
3.256275545060e+01
3.340492370684e+01
3.252757314627e+01
4.375873693138e+01
3.150308173378e+01
3.150155873793e+01
3.148824715025e+01
3.149756698563e+01
3.839075029670e+01
3.839586379078e+01
3.852100172761e+01
3.818756279889e+01
3.191001733253e+01
3.326438237673e+01
3.582680359257e+01
3.589887131711e+01
3.319669325354e+01
3.190825021562e+01
3.180910617806e+01
3.229199287258e+01
3.194085042743e+01
3.190972388402e+01
3.325797847916e+01
3.581493124315e+01
3.181276615639e+01
3.229489806963e+01
3.192872605875e+01
3.188804266707e+01
3.333143360837e+01
3.574427588134e+01
3.180746960592e+01
3.229274584385e+01
3.194416746460e+01
3.194079078111e+01
3.229372719420e+01
3.180929611774e+01
3.318101475203e+01
3.232199024059e+01
3.317486246627e+01
3.233115488810e+01
3.317834355027e+01
3.234017602808e+01
3.316711756455e+01
3.230558809056e+01
4.319643668931e+01
3.132622000553e+01
3.132470175202e+01
3.131138396922e+01
3.132095878598e+01
3.813308106124e+01
3.813798763720e+01
3.826120615426e+01
3.793303928837e+01
3.172686787442e+01
3.306307415358e+01
3.559544112817e+01
3.566665087179e+01
3.299614035039e+01
3.172505326512e+01
3.162727175035e+01
3.210283457304e+01
3.175743980175e+01
3.172659742065e+01
3.305671420671e+01
3.558374305669e+01
3.163086376275e+01
3.210573268065e+01
3.174548979361e+01
3.170525168430e+01
3.312925904095e+01
3.551393368769e+01
3.162566789991e+01
3.210362418231e+01
3.176066810498e+01
3.175733688622e+01
3.210456068575e+01
3.162748278427e+01
3.297955641702e+01
3.213273440754e+01
3.297347647876e+01
3.214172513157e+01
3.297686262953e+01
3.215070380947e+01
3.296580037435e+01
3.211657982404e+01
4.271901221259e+01
3.116940070662e+01
3.116789316270e+01
3.115455789348e+01
3.116431758048e+01
3.790541376483e+01
3.791028341227e+01
3.803442883738e+01
3.770369080421e+01
3.156554228976e+01
3.288929437599e+01
3.540123555660e+01
3.547217876410e+01
3.282283755271e+01
3.156368610359e+01
3.146675816794e+01
3.193711451456e+01
3.159587427369e+01
3.156528455375e+01
3.288295682157e+01
3.538967022313e+01
3.147030082950e+01
3.194000181791e+01
3.158405072081e+01
3.154418315103e+01
3.295490691999e+01
3.531997359371e+01
3.146516624695e+01
3.193791588747e+01
3.159905322295e+01
3.159574867319e+01
3.193882881420e+01
3.146697266895e+01
3.280552698890e+01
3.196711283138e+01
3.279952230471e+01
3.197596398640e+01
3.280287757325e+01
3.198491797783e+01
3.279190415458e+01
3.195111398490e+01
4.231686842891e+01
3.096245068205e+01
3.096096621553e+01
3.094755935327e+01
3.095744949408e+01
3.763646170026e+01
3.764125866501e+01
3.777260284856e+01
3.742195129077e+01
3.135671727112e+01
3.267720571433e+01
3.518501597182e+01
3.525692453232e+01
3.261070872743e+01
3.135481860096e+01
3.125787119743e+01
3.172619944834e+01
3.138682100874e+01
3.135645606540e+01
3.267083964459e+01
3.517354656013e+01
3.126138956243e+01
3.172906852613e+01
3.137505420723e+01
3.133546383541e+01
3.274275192470e+01
3.510242112000e+01
3.125625018034e+01
3.172696766255e+01
3.139001943158e+01
3.138670676587e+01
3.172789325261e+01
3.125805519980e+01
3.259274237182e+01
3.175676131343e+01
3.258683830928e+01
3.176550771235e+01
3.259028605586e+01
3.177447356669e+01
3.257926148509e+01
3.174076017525e+01
4.188068673552e+01
3.059518668478e+01
3.059379926121e+01
3.058017836716e+01
3.059013748310e+01
3.709122978261e+01
3.709902109549e+01
3.726354182704e+01
3.682143821443e+01
3.099035457756e+01
3.232106018882e+01
3.484985480950e+01
3.492680623349e+01
3.225355377662e+01
3.098835460824e+01
3.088959830128e+01
3.135952777767e+01
3.101981017682e+01
3.099002320292e+01
3.231459104673e+01
3.483829604024e+01
3.089309736564e+01
3.136232321117e+01
3.100804598993e+01
3.096903056134e+01
3.238745036818e+01
3.475992413556e+01
3.088778874538e+01
3.136008763905e+01
3.102320995580e+01
3.101980682781e+01
3.136113332135e+01
3.088961108653e+01
3.223443584213e+01
3.139235816453e+01
3.222886845092e+01
3.140091505319e+01
3.223288802785e+01
3.140996924037e+01
3.222142171475e+01
3.137602374938e+01
4.139804380853e+01
3.055183444404e+01
3.055047425284e+01
3.053681036086e+01
3.054682096008e+01
3.699654737090e+01
3.700434383217e+01
3.717488085968e+01
3.671621211804e+01
3.094568319223e+01
3.227511493289e+01
3.480146582887e+01
3.487924836211e+01
3.220756918635e+01
3.094362267549e+01
3.084459235440e+01
3.131321119360e+01
3.097486576865e+01
3.094535677073e+01
3.226862061610e+01
3.479004364713e+01
3.084809089753e+01
3.131598746151e+01
3.096313619391e+01
3.092446364581e+01
3.234146108879e+01
3.471048294337e+01
3.084277555867e+01
3.131373730824e+01
3.097829862786e+01
3.097488439111e+01
3.131480337139e+01
3.084458117545e+01
3.218806212166e+01
3.134677473329e+01
3.218255907299e+01
3.135524111407e+01
3.218663321456e+01
3.136433055053e+01
3.217513198820e+01
3.133041680927e+01
4.115313925097e+01
3.056315631302e+01
3.056184630123e+01
3.054810720170e+01
3.055827478081e+01
3.687787173458e+01
3.688711333801e+01
3.707212074268e+01
3.657355173414e+01
3.095335231684e+01
3.227578387847e+01
3.479437403183e+01
3.487399418564e+01
3.220821533293e+01
3.095124674743e+01
3.085222360506e+01
3.131674549518e+01
3.098199921303e+01
3.095300154195e+01
3.226926432291e+01
3.478292296005e+01
3.085565853146e+01
3.131947618577e+01
3.097037997664e+01
3.093229576982e+01
3.234201891903e+01
3.470042915449e+01
3.085032107541e+01
3.131718469529e+01
3.098547425200e+01
3.098204960923e+01
3.131828738443e+01
3.085213965567e+01
3.218726233439e+01
3.135135359048e+01
3.218197385896e+01
3.135960477661e+01
3.218628217546e+01
3.136872546247e+01
3.217466583379e+01
3.133500600036e+01
4.097133784601e+01
3.061182798910e+01
3.061059388680e+01
3.059702975332e+01
3.060672052464e+01
3.671798486213e+01
3.672833491295e+01
3.692893615267e+01
3.638733170810e+01
3.100037446196e+01
3.231575768539e+01
3.480446104044e+01
3.488567749607e+01
3.224876020921e+01
3.099819347313e+01
3.089935392927e+01
3.136243093313e+01
3.102856736658e+01
3.099999069692e+01
3.230932621761e+01
3.479358413988e+01
3.090282944884e+01
3.136508034894e+01
3.101705198395e+01
3.097955435165e+01
3.238144474022e+01
3.470857580685e+01
3.089744146754e+01
3.136274998657e+01
3.103214516587e+01
3.102869776523e+01
3.136390483712e+01
3.089917349697e+01
3.223098309509e+01
3.139697071404e+01
3.222588414095e+01
3.140522395519e+01
3.223040116928e+01
3.141407184955e+01
3.221871457469e+01
3.138053761812e+01
4.068309598442e+01
3.049088515516e+01
3.049010910060e+01
3.047571761958e+01
3.048649706178e+01
3.649836646873e+01
3.651594430572e+01
3.676078874166e+01
3.609838722932e+01
3.086297004037e+01
3.218750442796e+01
3.476442135546e+01
3.485333266531e+01
3.211779000488e+01
3.085997695041e+01
3.075367880797e+01
3.119900541488e+01
3.088623928073e+01
3.086282061993e+01
3.218054292862e+01
3.475220101048e+01
3.075721611594e+01
3.120164108976e+01
3.087493884376e+01
3.084273829256e+01
3.225474773037e+01
3.465564215135e+01
3.075185255772e+01
3.119899360298e+01
3.089012661210e+01
3.088660210536e+01
3.120039794489e+01
3.075332736420e+01
3.207882437766e+01
3.124935848029e+01
3.207419697443e+01
3.125579894006e+01
3.207897860052e+01
3.126657304866e+01
3.206682998084e+01
3.123272342715e+01
4.050051917244e+01
2.996291600925e+01
2.996235536915e+01
2.995314346399e+01
2.996056447115e+01
3.510563698526e+01
3.508731016349e+01
3.516177864012e+01
3.495512431708e+01
3.019428744950e+01
3.103119077693e+01
3.281413329569e+01
3.286232945802e+01
3.098312763186e+01
3.019375644649e+01
3.012632846383e+01
3.039792606798e+01
3.020767475640e+01
3.019433451276e+01
3.102624384067e+01
3.280165195037e+01
3.012830411667e+01
3.039985302511e+01
3.020052596258e+01
3.017931567582e+01
3.107736640437e+01
3.275391668905e+01
3.012514269845e+01
3.039806068691e+01
3.020990886174e+01
3.020780904281e+01
3.039885952573e+01
3.012631319521e+01
3.093175185635e+01
3.043235381306e+01
3.092874602314e+01
3.043562930105e+01
3.093124719480e+01
3.044364844068e+01
3.092335138733e+01
3.042233351651e+01
4.020394016083e+01
2.979658490259e+01
2.979578861150e+01
2.978974203515e+01
2.979475551192e+01
3.229429876119e+01
3.231468095207e+01
3.235471809733e+01
3.225756841173e+01
2.996884113659e+01
3.054114706339e+01
3.154131371734e+01
3.156826709626e+01
3.051570804613e+01
2.996685929526e+01
2.992612935356e+01
3.013395103081e+01
2.998414480682e+01
2.996890772240e+01
3.053873730431e+01
3.153927092643e+01
2.992793676103e+01
3.013534295892e+01
2.997890043679e+01
2.996129626816e+01
3.056629063529e+01
3.151341274962e+01
2.992596952784e+01
3.013477927687e+01
2.998516219803e+01
2.998379687107e+01
3.013491838425e+01
2.992652734532e+01
3.052156192626e+01
3.014479477627e+01
3.051815291613e+01
3.014922996154e+01
3.051854104465e+01
3.015290840297e+01
3.051480202128e+01
3.013812912211e+01
3.160610896672e+01
2.963673296074e+01
2.963603535498e+01
2.963397289732e+01
2.963398037315e+01
3.066387658409e+01
3.067430718816e+01
3.069558102385e+01
3.064433579883e+01
2.975561331200e+01
3.008328205523e+01
3.051982487334e+01
3.053251749190e+01
3.007242305778e+01
2.975491251165e+01
2.973657904872e+01
2.987986864248e+01
2.976796043052e+01
2.975534501297e+01
3.008268288330e+01
3.052173650893e+01
2.973783454999e+01
2.988043380190e+01
2.976474110625e+01
2.975117768431e+01
3.009546651273e+01
3.051123276629e+01
2.973643894363e+01
2.988029698664e+01
2.976869338606e+01
2.976784944761e+01
2.988037128202e+01
2.973673227850e+01
3.010836223135e+01
2.987167455055e+01
3.010618540607e+01
2.987622516207e+01
3.010661202874e+01
2.987589031051e+01
3.010469873596e+01
2.986747205624e+01
3.090399141640e+01
2.949976980781e+01
2.949918434337e+01
2.949880642221e+01
2.949758052330e+01
2.998902064027e+01
2.999171883499e+01
2.999616345677e+01
2.998620383324e+01
2.957392713288e+01
2.974029852590e+01
2.991945036863e+01
2.992415592208e+01
2.973584652671e+01
2.957432885449e+01
2.956940979175e+01
2.965680794273e+01
2.958314168018e+01
2.957351267372e+01
2.974033056792e+01
2.992072919321e+01
2.956996338350e+01
2.965703180492e+01
2.958135265667e+01
2.957086247227e+01
2.974628148862e+01
2.991800261366e+01
2.956904990730e+01
2.965703298623e+01
2.958346702335e+01
2.958304158186e+01
2.965700811658e+01
2.956942060314e+01
2.976810287199e+01
2.964209232556e+01
2.976701894712e+01
2.964561055712e+01
2.976768948790e+01
2.964400730686e+01
2.976658405095e+01
2.963984055665e+01
2.996308615963e+01
2.939599763586e+01
2.939552232315e+01
2.939529200219e+01
2.939505528790e+01
2.961070727711e+01
2.961187484540e+01
2.961424259639e+01
2.960870192080e+01
2.943679942439e+01
2.951375318568e+01
2.958784672173e+01
2.958994651268e+01
2.951178255044e+01
2.943737842478e+01
2.943809672359e+01
2.948520329685e+01
2.944338030546e+01
2.943643984291e+01
2.951382307674e+01
2.958837243955e+01
2.943816196188e+01
2.948532956940e+01
2.944246417941e+01
2.943496792676e+01
2.951667207953e+01
2.958721565791e+01
2.943765004294e+01
2.948540725117e+01
2.944338049367e+01
2.944319960092e+01
2.948529841780e+01
2.943809686246e+01
2.953142406971e+01
2.947244991116e+01
2.953096044140e+01
2.947465938779e+01
2.953160143046e+01
2.947328132527e+01
2.953097437558e+01
2.947144314559e+01
2.962095052236e+01
2.931246298841e+01
2.931240826414e+01
2.931235376637e+01
2.931262325123e+01
2.930490857481e+01
2.930483688679e+01
2.930466989952e+01
2.930510342462e+01
2.931214897346e+01
2.930968412000e+01
2.930618293227e+01
2.930611508642e+01
2.930975694365e+01
2.931220242818e+01
2.931275812640e+01
2.931233725647e+01
2.931244501582e+01
2.931212076029e+01
2.930968686628e+01
2.930616611859e+01
2.931267891235e+01
2.931232525077e+01
2.931244999232e+01
2.931217367035e+01