# vtk DataFile Version 3.0
Unstructured Grid from OpenGeoSys
ASCII
DATASET UNSTRUCTURED_GRID
FIELD TimesAndCycles 2
TIME 1 1 double
3.600000000000e+03
CYLCE 1 1 long
1
POINTS 1394 double
0.000000000000e+00 0.000000000000e+00 0.000000000000e+00
5.000000000000e+00 0.000000000000e+00 0.000000000000e+00
5.000000000000e+00 5.000000000000e+00 0.000000000000e+00
0.000000000000e+00 5.000000000000e+00 0.000000000000e+00
2.244234909000e+00 2.244234909000e+00 0.000000000000e+00
2.755765091000e+00 2.244234909000e+00 0.000000000000e+00
2.755765091000e+00 2.755765091000e+00 0.000000000000e+00
2.244234909000e+00 2.755765091000e+00 0.000000000000e+00
7.141316008320e-01 7.141316008320e-01 0.000000000000e+00
1.314642334730e+00 1.314642334730e+00 0.000000000000e+00
1.819609643610e+00 1.819609643610e+00 0.000000000000e+00
1.819609643610e+00 3.180390356390e+00 0.000000000000e+00
1.314642334740e+00 3.685357665260e+00 0.000000000000e+00
7.141316008360e-01 4.285868399160e+00 0.000000000000e+00
0.000000000000e+00 3.750000000000e+00 0.000000000000e+00
0.000000000000e+00 2.500000000000e+00 0.000000000000e+00
0.000000000000e+00 1.250000000000e+00 0.000000000000e+00
4.285868399170e+00 7.141316008320e-01 0.000000000000e+00
3.685357665270e+00 1.314642334730e+00 0.000000000000e+00
3.180390356390e+00 1.819609643610e+00 0.000000000000e+00
1.250000000000e+00 0.000000000000e+00 0.000000000000e+00
2.500000000000e+00 0.000000000000e+00 0.000000000000e+00
3.750000000000e+00 0.000000000000e+00 0.000000000000e+00
4.285868399170e+00 4.285868399170e+00 0.000000000000e+00
3.685357665270e+00 3.685357665270e+00 0.000000000000e+00
3.180390356390e+00 3.180390356390e+00 0.000000000000e+00
5.000000000000e+00 1.250000000000e+00 0.000000000000e+00
5.000000000000e+00 2.500000000000e+00 0.000000000000e+00
5.000000000000e+00 3.750000000000e+00 0.000000000000e+00
3.750000000000e+00 5.000000000000e+00 0.000000000000e+00
2.500000000000e+00 5.000000000000e+00 0.000000000000e+00
1.250000000000e+00 5.000000000000e+00 0.000000000000e+00
9.560744151940e-01 2.677827143250e+00 0.000000000000e+00
6.659597640160e-01 1.438876720610e+00 0.000000000000e+00
2.309219871940e+00 9.522638293400e-01 0.000000000000e+00
3.458157207860e+00 6.354750772000e-01 0.000000000000e+00
4.043925584810e+00 2.322172856750e+00 0.000000000000e+00
4.334040235980e+00 3.561123279390e+00 0.000000000000e+00
2.318530875810e+00 4.048536535600e+00 0.000000000000e+00
3.552396921680e+00 4.370927842320e+00 0.000000000000e+00
2.500000000000e+00 2.500000000000e+00 0.000000000000e+00
0.000000000000e+00 0.000000000000e+00 -5.000000000000e-01
5.000000000000e+00 0.000000000000e+00 -5.000000000000e-01
5.000000000000e+00 5.000000000000e+00 -5.000000000000e-01
0.000000000000e+00 5.000000000000e+00 -5.000000000000e-01
2.244234909000e+00 2.244234909000e+00 -5.000000000000e-01
2.755765091000e+00 2.244234909000e+00 -5.000000000000e-01
2.755765091000e+00 2.755765091000e+00 -5.000000000000e-01
2.244234909000e+00 2.755765091000e+00 -5.000000000000e-01
7.141316008320e-01 7.141316008320e-01 -5.000000000000e-01
1.314642334730e+00 1.314642334730e+00 -5.000000000000e-01
1.819609643610e+00 1.819609643610e+00 -5.000000000000e-01
1.819609643610e+00 3.180390356390e+00 -5.000000000000e-01
1.314642334740e+00 3.685357665260e+00 -5.000000000000e-01
7.141316008360e-01 4.285868399160e+00 -5.000000000000e-01
0.000000000000e+00 3.750000000000e+00 -5.000000000000e-01
0.000000000000e+00 2.500000000000e+00 -5.000000000000e-01
0.000000000000e+00 1.250000000000e+00 -5.000000000000e-01
4.285868399170e+00 7.141316008320e-01 -5.000000000000e-01
3.685357665270e+00 1.314642334730e+00 -5.000000000000e-01
3.180390356390e+00 1.819609643610e+00 -5.000000000000e-01
1.250000000000e+00 0.000000000000e+00 -5.000000000000e-01
2.500000000000e+00 0.000000000000e+00 -5.000000000000e-01
3.750000000000e+00 0.000000000000e+00 -5.000000000000e-01
4.285868399170e+00 4.285868399170e+00 -5.000000000000e-01
3.685357665270e+00 3.685357665270e+00 -5.000000000000e-01
3.180390356390e+00 3.180390356390e+00 -5.000000000000e-01
5.000000000000e+00 1.250000000000e+00 -5.000000000000e-01
5.000000000000e+00 2.500000000000e+00 -5.000000000000e-01
5.000000000000e+00 3.750000000000e+00 -5.000000000000e-01
3.750000000000e+00 5.000000000000e+00 -5.000000000000e-01
2.500000000000e+00 5.000000000000e+00 -5.000000000000e-01
1.250000000000e+00 5.000000000000e+00 -5.000000000000e-01
9.560744151940e-01 2.677827143250e+00 -5.000000000000e-01
6.659597640160e-01 1.438876720610e+00 -5.000000000000e-01
2.309219871940e+00 9.522638293400e-01 -5.000000000000e-01
3.458157207860e+00 6.354750772000e-01 -5.000000000000e-01
4.043925584810e+00 2.322172856750e+00 -5.000000000000e-01
4.334040235980e+00 3.561123279390e+00 -5.000000000000e-01
2.318530875810e+00 4.048536535600e+00 -5.000000000000e-01
3.552396921680e+00 4.370927842320e+00 -5.000000000000e-01
2.500000000000e+00 2.500000000000e+00 -5.000000000000e-01
0.000000000000e+00 0.000000000000e+00 -1.000000000000e+00
5.000000000000e+00 0.000000000000e+00 -1.000000000000e+00
5.000000000000e+00 5.000000000000e+00 -1.000000000000e+00
0.000000000000e+00 5.000000000000e+00 -1.000000000000e+00
2.244234909000e+00 2.244234909000e+00 -1.000000000000e+00
2.755765091000e+00 2.244234909000e+00 -1.000000000000e+00
2.755765091000e+00 2.755765091000e+00 -1.000000000000e+00
2.244234909000e+00 2.755765091000e+00 -1.000000000000e+00
7.141316008320e-01 7.141316008320e-01 -1.000000000000e+00
1.314642334730e+00 1.314642334730e+00 -1.000000000000e+00
1.819609643610e+00 1.819609643610e+00 -1.000000000000e+00
1.819609643610e+00 3.180390356390e+00 -1.000000000000e+00
1.314642334740e+00 3.685357665260e+00 -1.000000000000e+00
7.141316008360e-01 4.285868399160e+00 -1.000000000000e+00
0.000000000000e+00 3.750000000000e+00 -1.000000000000e+00
0.000000000000e+00 2.500000000000e+00 -1.000000000000e+00
0.000000000000e+00 1.250000000000e+00 -1.000000000000e+00
4.285868399170e+00 7.141316008320e-01 -1.000000000000e+00
3.685357665270e+00 1.314642334730e+00 -1.000000000000e+00
3.180390356390e+00 1.819609643610e+00 -1.000000000000e+00
1.250000000000e+00 0.000000000000e+00 -1.000000000000e+00
2.500000000000e+00 0.000000000000e+00 -1.000000000000e+00
3.750000000000e+00 0.000000000000e+00 -1.000000000000e+00
4.285868399170e+00 4.285868399170e+00 -1.000000000000e+00
3.685357665270e+00 3.685357665270e+00 -1.000000000000e+00
3.180390356390e+00 3.180390356390e+00 -1.000000000000e+00
5.000000000000e+00 1.250000000000e+00 -1.000000000000e+00
5.000000000000e+00 2.500000000000e+00 -1.000000000000e+00
5.000000000000e+00 3.750000000000e+00 -1.000000000000e+00
3.750000000000e+00 5.000000000000e+00 -1.000000000000e+00
2.500000000000e+00 5.000000000000e+00 -1.000000000000e+00
1.250000000000e+00 5.000000000000e+00 -1.000000000000e+00
9.560744151940e-01 2.677827143250e+00 -1.000000000000e+00
6.659597640160e-01 1.438876720610e+00 -1.000000000000e+00
2.309219871940e+00 9.522638293400e-01 -1.000000000000e+00
3.458157207860e+00 6.354750772000e-01 -1.000000000000e+00
4.043925584810e+00 2.322172856750e+00 -1.000000000000e+00
4.334040235980e+00 3.561123279390e+00 -1.000000000000e+00
2.318530875810e+00 4.048536535600e+00 -1.000000000000e+00
3.552396921680e+00 4.370927842320e+00 -1.000000000000e+00
2.500000000000e+00 2.500000000000e+00 -1.000000000000e+00
0.000000000000e+00 0.000000000000e+00 -3.000000000000e+00
5.000000000000e+00 0.000000000000e+00 -3.000000000000e+00
5.000000000000e+00 5.000000000000e+00 -3.000000000000e+00
0.000000000000e+00 5.000000000000e+00 -3.000000000000e+00
2.244234909000e+00 2.244234909000e+00 -3.000000000000e+00
2.755765091000e+00 2.244234909000e+00 -3.000000000000e+00
2.755765091000e+00 2.755765091000e+00 -3.000000000000e+00
2.244234909000e+00 2.755765091000e+00 -3.000000000000e+00
7.141316008320e-01 7.141316008320e-01 -3.000000000000e+00
1.314642334730e+00 1.314642334730e+00 -3.000000000000e+00
1.819609643610e+00 1.819609643610e+00 -3.000000000000e+00
1.819609643610e+00 3.180390356390e+00 -3.000000000000e+00
1.314642334740e+00 3.685357665260e+00 -3.000000000000e+00
7.141316008360e-01 4.285868399160e+00 -3.000000000000e+00
0.000000000000e+00 3.750000000000e+00 -3.000000000000e+00
0.000000000000e+00 2.500000000000e+00 -3.000000000000e+00
0.000000000000e+00 1.250000000000e+00 -3.000000000000e+00
4.285868399170e+00 7.141316008320e-01 -3.000000000000e+00
3.685357665270e+00 1.314642334730e+00 -3.000000000000e+00
3.180390356390e+00 1.819609643610e+00 -3.000000000000e+00
1.250000000000e+00 0.000000000000e+00 -3.000000000000e+00
2.500000000000e+00 0.000000000000e+00 -3.000000000000e+00
3.750000000000e+00 0.000000000000e+00 -3.000000000000e+00
4.285868399170e+00 4.285868399170e+00 -3.000000000000e+00
3.685357665270e+00 3.685357665270e+00 -3.000000000000e+00
3.180390356390e+00 3.180390356390e+00 -3.000000000000e+00
5.000000000000e+00 1.250000000000e+00 -3.000000000000e+00
5.000000000000e+00 2.500000000000e+00 -3.000000000000e+00
5.000000000000e+00 3.750000000000e+00 -3.000000000000e+00
3.750000000000e+00 5.000000000000e+00 -3.000000000000e+00
2.500000000000e+00 5.000000000000e+00 -3.000000000000e+00
1.250000000000e+00 5.000000000000e+00 -3.000000000000e+00
9.560744151940e-01 2.677827143250e+00 -3.000000000000e+00
6.659597640160e-01 1.438876720610e+00 -3.000000000000e+00
2.309219871940e+00 9.522638293400e-01 -3.000000000000e+00
3.458157207860e+00 6.354750772000e-01 -3.000000000000e+00
4.043925584810e+00 2.322172856750e+00 -3.000000000000e+00
4.334040235980e+00 3.561123279390e+00 -3.000000000000e+00
2.318530875810e+00 4.048536535600e+00 -3.000000000000e+00
3.552396921680e+00 4.370927842320e+00 -3.000000000000e+00
2.500000000000e+00 2.500000000000e+00 -3.000000000000e+00
0.000000000000e+00 0.000000000000e+00 -5.000000000000e+00
5.000000000000e+00 0.000000000000e+00 -5.000000000000e+00
5.000000000000e+00 5.000000000000e+00 -5.000000000000e+00
0.000000000000e+00 5.000000000000e+00 -5.000000000000e+00
2.244234909000e+00 2.244234909000e+00 -5.000000000000e+00
[...]
POINT_DATA 1394
SCALARS TEMPERATURE1 double 1
LOOKUP_TABLE default
1.000000000000e+01
1.000000000000e+01
1.000000000000e+01
1.000000000000e+01
1.000000000000e+01
1.000000000000e+01
1.000000000000e+01
1.000000000000e+01
1.000000000000e+01
1.000000000000e+01
1.000000000000e+01
1.000000000000e+01
1.000000000000e+01
1.000000000000e+01
1.000000000000e+01
1.000000000000e+01
1.000000000000e+01
1.000000000000e+01
1.000000000000e+01
1.000000000000e+01
1.000000000000e+01
1.000000000000e+01
1.000000000000e+01
1.000000000000e+01
1.000000000000e+01
1.000000000000e+01
1.000000000000e+01
1.000000000000e+01
1.000000000000e+01
1.000000000000e+01
1.000000000000e+01
1.000000000000e+01
1.000000000000e+01
1.000000000000e+01
1.000000000000e+01
1.000000000000e+01
1.000000000000e+01
1.000000000000e+01
1.000000000000e+01
1.000000000000e+01
1.000000000000e+01
1.972685328001e+01
1.972560372967e+01
1.971762744390e+01
1.972284334452e+01
2.251549969536e+01
2.255238090175e+01
2.260850204847e+01
2.247947163022e+01
1.999657467104e+01
2.087599165232e+01
2.214081386376e+01
2.217726541947e+01
2.084520974081e+01
1.999140872897e+01
1.992682203369e+01
2.026154456188e+01
2.002043683156e+01
1.999692845035e+01
2.087347180261e+01
2.214718661672e+01
1.993047444522e+01
2.026321686977e+01
2.001223714157e+01
1.998887582392e+01
2.090770766010e+01
2.211625222454e+01
1.992769271805e+01
2.026296484663e+01
2.002258009012e+01
2.002031917169e+01
2.026337901755e+01
1.992777507010e+01
2.090101238806e+01
2.027644825388e+01
2.089435530784e+01
2.028456542644e+01
2.089287288226e+01
2.028878047185e+01
2.088910754650e+01
2.026575225449e+01
2.059539488876e+01
2.986841043782e+01
2.986685014530e+01
2.987472025365e+01
2.984160202601e+01
3.771119715761e+01
3.761908174352e+01
3.752190796101e+01
3.775479796789e+01
3.039966479365e+01
3.157853270956e+01
3.344296153311e+01
3.346633133472e+01
3.153038467324e+01
3.041257708622e+01
3.036132775890e+01
3.095362105556e+01
3.043717513850e+01
3.039633557784e+01
3.157742666797e+01
3.342585311478e+01
3.036596468507e+01
3.095435047161e+01
3.042475582710e+01
3.036306000566e+01
3.163988098860e+01
3.342260928849e+01
3.035789492125e+01
3.095121981032e+01
3.044228276381e+01
3.043967732485e+01
3.095326400167e+01
3.035930142531e+01
3.166656008265e+01
3.087009535369e+01
3.166255902364e+01
3.089123606648e+01
3.167179042383e+01
3.088214335800e+01
3.165874192754e+01
3.085304804647e+01
4.985235062438e+01
3.525654912403e+01
3.525361428588e+01
3.526173255097e+01
3.523200224628e+01
4.169098815121e+01
4.162233585771e+01
4.157042584235e+01
4.168452337217e+01
3.578559509551e+01
3.676377373469e+01
3.826857133311e+01
3.829068886959e+01
3.672311454102e+01
3.580269469894e+01
3.579816123381e+01
3.637339075048e+01
3.584363042252e+01
3.578064614906e+01
3.676309590172e+01
3.825013602313e+01
3.580014078338e+01
3.637452536734e+01
3.583217509953e+01
3.574773582138e+01
3.681789803228e+01
3.824096648759e+01
3.579189686009e+01
3.637220224265e+01
3.584603362940e+01
3.584451539781e+01
3.637277949310e+01
3.579576061021e+01
3.688484836076e+01
3.622818952218e+01
3.688282360508e+01
3.625292187584e+01
3.689614474261e+01
3.623702109327e+01
3.688277743437e+01
3.621419847750e+01
5.089818547259e+01
3.808557902504e+01
3.808271194787e+01
3.809244190764e+01
3.806227174497e+01
4.330378048275e+01
4.323381195664e+01
4.317671778439e+01
4.330380200055e+01
3.855694393147e+01
3.935035079700e+01
4.045486673936e+01
4.046822279478e+01
3.932020453705e+01
3.857373025544e+01
3.858142504765e+01
3.909146865547e+01
3.861046662749e+01
3.855203808695e+01
3.935074865562e+01
4.044009293256e+01
3.858284540416e+01
3.909196486902e+01
3.860068362753e+01
3.852317756391e+01
3.939434782951e+01
4.043979570310e+01
3.857535908922e+01
3.909010898222e+01
3.861265851699e+01
3.861145376538e+01
3.909069960396e+01
3.857908431360e+01
3.949203587315e+01
3.894375334433e+01
3.949066363948e+01
3.896723607425e+01
3.950322152161e+01
3.895006895323e+01
3.949172424220e+01
3.893189969999e+01
5.144755401378e+01
3.935955221615e+01
3.935685855470e+01
3.936710096030e+01
3.933711102610e+01
4.408773110684e+01
4.401981320707e+01
4.396506708052e+01
4.408576969137e+01
3.979770049786e+01
4.049999343335e+01
4.145644635111e+01
4.146693827839e+01
4.047366595853e+01
3.981436852383e+01
3.982716241828e+01
4.029832316470e+01
3.984814433309e+01
3.979288296648e+01
4.050061445331e+01
4.144214663707e+01
3.982826913070e+01
4.029863408431e+01
3.983923646820e+01
3.976570302874e+01
4.053979825248e+01
4.144360143261e+01
3.982118408236e+01
4.029688800521e+01
3.985012391421e+01
3.984914806302e+01
4.029745391147e+01
3.982480497437e+01
4.063958666607e+01
4.015276834513e+01
4.063871001869e+01
4.017509108277e+01
4.065105631676e+01
4.015793686947e+01
4.064026556842e+01
4.014207981855e+01
5.166952516845e+01
3.987610647522e+01
3.987348923044e+01
3.988396499675e+01
3.985392773123e+01
4.438353641703e+01
4.431604556125e+01
4.426091314116e+01
4.438268842975e+01
4.030128517795e+01
4.096756134158e+01
4.185512879458e+01
4.186414354546e+01
4.094304195247e+01
4.031780338792e+01
4.033247675671e+01
4.078886031929e+01
4.035046263209e+01
4.029652307922e+01
4.096833055604e+01
4.184137252883e+01
4.033352018451e+01
4.078909085675e+01
4.034190954043e+01
4.027011202088e+01
4.100545332202e+01
4.184410761126e+01
4.032661004012e+01
4.078740121262e+01
4.035238014473e+01
4.035147933548e+01
4.078795413522e+01
4.033012593753e+01
4.110845602618e+01
4.064416732711e+01
4.110773108291e+01
4.066608714009e+01
4.111988756877e+01
4.064886518879e+01
4.110944186142e+01
4.063390382864e+01
5.173600817560e+01
4.006077083589e+01
4.005818699709e+01
4.006871754250e+01
4.003872998319e+01
4.448345642883e+01
4.441643425781e+01
4.436156509388e+01
4.448267737389e+01
4.048047730139e+01
4.113244876624e+01
4.199515574847e+01
4.200367527971e+01
4.110857663599e+01
4.049692424028e+01
4.051228816724e+01
4.096241378102e+01
4.052911402466e+01
4.047574093328e+01
4.113326478103e+01
4.198154497322e+01
4.051330279882e+01
4.096262055647e+01
4.052070707023e+01
4.044962761348e+01
4.116962049870e+01
4.198461673616e+01
4.050646515484e+01
4.096094798826e+01
4.053099821559e+01
4.053012720316e+01
4.096149086656e+01
4.050993946881e+01
4.127321512571e+01
4.081827102654e+01
4.127256162249e+01
4.084000082575e+01
4.128464941376e+01
4.082278897135e+01
4.127432860169e+01
4.080818210761e+01
5.175077501164e+01
3.982979059033e+01
3.982723338479e+01
3.983748094421e+01
3.980789018404e+01
4.428626739450e+01
4.422018920076e+01
4.416258065586e+01
4.429206161599e+01
4.024954228830e+01
4.091411069277e+01
4.179298485631e+01
4.180154004991e+01
4.088997814887e+01
4.026555063902e+01
4.027856082327e+01
4.073007185693e+01
4.029765647339e+01
4.024492194377e+01
4.091489078158e+01
4.177983428675e+01
4.027971581651e+01
4.073030791370e+01
4.028917586206e+01
4.021901448929e+01
4.095141521517e+01
4.178326025595e+01
4.027293606874e+01
4.072865276107e+01
4.029960068036e+01
4.029867331170e+01
4.072921159228e+01
4.027629185959e+01
4.105385981137e+01
4.058916272480e+01
4.105299188495e+01
4.061074204445e+01
4.106471543639e+01
4.059394704797e+01
4.105452301651e+01
4.057894418429e+01
5.149984787623e+01
3.953000432440e+01
3.952745656423e+01
3.953740837116e+01
3.950819165168e+01
4.405497719934e+01
4.398975810267e+01
4.393025223238e+01
4.406566789884e+01
3.995206466084e+01
4.063394307371e+01
4.154002275672e+01
4.154894283329e+01
4.060923286481e+01
3.996772553882e+01
3.997837775059e+01
4.043364464999e+01
3.999996085693e+01
3.994753217788e+01
4.063466172950e+01
4.152713815196e+01
3.997965832948e+01
4.043392111145e+01
3.999135390935e+01
3.992166100669e+01
4.067172903100e+01
4.153052747090e+01
3.997289601139e+01
4.043226932262e+01
4.000196632189e+01
4.000097784821e+01
4.043284453619e+01
3.997617445542e+01
4.077237411930e+01
4.029538997627e+01
4.077130041279e+01
4.031690315002e+01
4.078275602972e+01
4.030048762878e+01
4.077260515027e+01
4.028498538152e+01
5.127923628436e+01
3.930977978641e+01
3.930724480203e+01
3.931695696033e+01
3.928806866471e+01
4.387641604409e+01
4.381194825924e+01
4.375099709739e+01
4.389099301161e+01
3.973279844903e+01
4.042656773460e+01
4.135089499472e+01
4.136004798179e+01
4.040148759037e+01
3.974815770434e+01
3.975697584358e+01
4.021427060445e+01
3.978042728810e+01
3.972834325730e+01
4.042724198601e+01
4.133826432829e+01
3.975835429473e+01
4.021457624019e+01
3.977174072188e+01
3.970255703506e+01
4.046462876419e+01
4.134166605176e+01
3.975161920010e+01
4.021293114176e+01
3.978247774613e+01
3.978144360300e+01
4.021351819578e+01
3.975482780431e+01
4.056388130663e+01
4.007831330809e+01
4.056264896182e+01
4.009973824995e+01
4.057387032364e+01
4.008363953678e+01
4.056377597113e+01
4.006778463771e+01
5.108955271153e+01
3.913178897801e+01
3.912926510319e+01
3.913877433349e+01
3.911017142807e+01
4.373118960010e+01
4.366737109613e+01
4.360530515423e+01
4.374887589821e+01
3.955545037790e+01
4.025877716934e+01
4.119794342142e+01
4.120729540936e+01
4.023339628205e+01
3.957055661448e+01
3.957786613692e+01
4.003666888257e+01
3.960284733821e+01
3.955105999832e+01
4.025941379157e+01
4.118552280395e+01
3.957932362293e+01
4.003699876413e+01
3.959409818160e+01
3.952535198395e+01
4.029705512855e+01
4.118891798992e+01
3.957261310778e+01
4.003535971464e+01
3.960493353911e+01
3.960386228042e+01
4.003595604412e+01
3.957576418870e+01
4.039509731914e+01
3.990264665290e+01
4.039373556535e+01
3.992399107219e+01
4.040476189057e+01
3.990815924175e+01
4.039471647114e+01
3.989201971289e+01
5.093214832062e+01
3.899902671650e+01
3.899651284501e+01
3.900586033444e+01
3.897749442164e+01
4.362030699098e+01
4.355702682528e+01
4.349414702997e+01
4.364036535495e+01
3.942291961596e+01
4.013313871827e+01
4.108300852334e+01
4.109250645863e+01
4.010754548760e+01
3.943782148883e+01
3.944397011956e+01
3.990365003422e+01
3.947011083346e+01
3.941858176124e+01
4.013374645011e+01
4.107076032042e+01
3.944548755305e+01
3.990399827227e+01
3.946131911440e+01
3.939295105821e+01
4.017155690337e+01
4.107415038098e+01
3.943880019907e+01
3.990236514345e+01
3.947222317194e+01
3.947112404094e+01
3.990296812088e+01
3.944190498482e+01
4.026863105370e+01
3.977119300632e+01
4.026717046103e+01
3.979246297954e+01
4.027803964074e+01
3.977684499083e+01
4.026803862482e+01
3.976049715053e+01
5.080621172354e+01
3.890921125146e+01
3.890670606562e+01
3.891593327843e+01
3.888775335486e+01
4.354241342079e+01
4.347955657515e+01
4.341612275512e+01
4.356417490267e+01
3.933298377737e+01
4.004758924642e+01
4.100423492866e+01
4.101382436613e+01
4.002186775153e+01
3.934772994940e+01
3.935305452671e+01
3.981305143733e+01
3.937999893292e+01
3.932868617787e+01
4.004817682252e+01
4.099212182343e+01
3.935461379803e+01
3.981341232676e+01
3.937118306019e+01
3.930312922487e+01
4.008607666694e+01
4.099551438951e+01
3.934794759846e+01
3.981178487026e+01
3.938212839136e+01
3.938101023848e+01
3.981239204648e+01
3.935101709753e+01
4.018243399946e+01
3.968178723345e+01
4.018090368238e+01
3.970299109628e+01
4.019165303026e+01
3.968753387973e+01
4.018169133948e+01
3.967104981300e+01
5.071134560723e+01
3.885587085688e+01
3.885337227512e+01
3.886251803922e+01
3.883447182584e+01
4.349412886154e+01
4.343157653664e+01
4.336781144056e+01
4.351698879878e+01
3.927935400020e+01
3.999638741100e+01
4.095680698495e+01
4.096644783273e+01
3.997059913177e+01
3.929399318634e+01
3.929879304532e+01
3.975876232262e+01
3.932623615992e+01
3.927508423133e+01
3.999696195280e+01
4.094478832016e+01
3.930037804478e+01
3.975913113462e+01
3.931740924522e+01
3.924958828157e+01
4.003489767854e+01
4.094818410752e+01
3.929372887593e+01
3.975750848474e+01
3.932837523633e+01
3.932724565991e+01
3.975811789157e+01
3.929677452775e+01
4.013076227519e+01
3.962831997827e+01
4.012918773735e+01
3.964947146196e+01
4.013985474172e+01
3.963412413945e+01
4.012992386283e+01
3.961756180669e+01
5.064767551381e+01
3.886734383012e+01
3.886485360060e+01
3.887397073881e+01
3.884600522366e+01
4.349039960715e+01
4.342804818069e+01
4.336419077680e+01
4.351373349855e+01
3.928957650321e+01
4.000474634037e+01
4.096170518745e+01
4.097127098548e+01
3.997906060300e+01
3.930415341984e+01
3.930887438636e+01
3.976755111207e+01
3.933630277811e+01
3.928532416478e+01
4.000532350220e+01
4.094976479278e+01
3.931046295343e+01
3.976791866713e+01
3.932750050973e+01
3.925991947987e+01
4.004311821692e+01
4.095323189540e+01
3.930383678797e+01
3.976630315688e+01
3.933843832687e+01
3.933731008076e+01
3.976691101292e+01
3.930686561344e+01
4.013889081073e+01
3.963757112895e+01
4.013730994568e+01
3.965866113898e+01
4.014792545904e+01
3.964336436750e+01
4.013803536766e+01
3.962684080807e+01
5.061431035905e+01
3.887866830171e+01
3.887618325077e+01
3.888530741810e+01
3.885733168527e+01
4.349429291128e+01
4.343200571124e+01
4.336818736933e+01
4.351764330848e+01
3.930049610954e+01
4.001471189544e+01
4.096970754901e+01
4.097923720319e+01
3.998907975752e+01
3.931506151608e+01
3.931980251614e+01
3.977802957742e+01
3.934716713465e+01
3.929624760499e+01
4.001529304337e+01
4.095779089924e+01
3.932139415560e+01
3.977839622321e+01
3.933837543823e+01
3.927086771399e+01
4.005302247763e+01
4.096128270813e+01
3.931477367186e+01
3.977678124700e+01
3.934930167420e+01
3.934817541137e+01
3.977738830562e+01
3.931779372489e+01
4.014888217402e+01
3.964813126197e+01
4.014730495129e+01
3.966920629735e+01
4.015791098389e+01
3.965391207805e+01
4.014803153151e+01
3.963741071188e+01
5.061482790668e+01
3.881057803499e+01
3.880808026589e+01
3.881713102856e+01
3.878925104911e+01
4.345660271030e+01
4.339412556566e+01
4.333028076945e+01
4.347972589068e+01
3.923346981732e+01
3.995086365669e+01
4.091444377225e+01
4.092413766535e+01
3.992498036668e+01
3.924805007232e+01
3.925266739888e+01
3.971206798401e+01
3.928028559129e+01
3.922921613738e+01
3.995142480515e+01
4.090240109359e+01
3.925425915703e+01
3.971245332199e+01
3.927146936404e+01
3.920373382513e+01
3.998940924123e+01
4.090572297508e+01
3.924762461956e+01
3.971082843795e+01
3.928241200779e+01
3.928127434391e+01
3.971142432230e+01
3.925065825984e+01
4.008441233179e+01
3.958208989123e+01
4.008283995640e+01
3.960319458571e+01
4.009347434065e+01
3.958791250989e+01
4.008354118278e+01
3.957133235476e+01
5.059267205887e+01
3.842297665560e+01
3.842044255174e+01
3.842930288533e+01
3.840120041701e+01
4.319208368573e+01
4.312989003839e+01
4.306536303600e+01
4.321712494110e+01
3.885842121047e+01
3.960810776600e+01
4.061319011204e+01
4.062371288915e+01
3.958116776649e+01
3.887292162921e+01
3.887599349290e+01
3.935031233866e+01
3.890659576444e+01
3.885415896688e+01
3.960863840394e+01
4.060134676431e+01
3.887779080677e+01
3.935080663759e+01
3.889748064085e+01
3.882814176731e+01
3.964779845218e+01
4.060423018975e+01
3.887102740767e+01
3.934914340861e+01
3.890875986326e+01
3.890754333968e+01
3.934969638633e+01
3.887399133173e+01
3.974477952955e+01
3.921895739955e+01
3.974301075476e+01
3.924060036315e+01
3.975365103524e+01
3.922515689472e+01
3.974350146697e+01
3.920774505016e+01
5.050262601456e+01
3.720735551253e+01
3.720530966342e+01
3.721401690891e+01
3.718478084195e+01
4.254050717122e+01
4.247558995103e+01
4.241223347037e+01
4.255949698300e+01
3.764598956824e+01
3.844838175885e+01
3.962645294001e+01
3.964021702238e+01
3.841699250365e+01
3.766026264591e+01
3.765345139063e+01
3.813087215337e+01
3.768983381483e+01
3.764201505639e+01
3.844834900895e+01
3.961207346854e+01
3.765576365674e+01
3.813152404244e+01
3.768045289309e+01
3.761454588300e+01
3.849183877391e+01
3.961115363764e+01
3.764887238481e+01
3.812939755119e+01
3.769239502449e+01
3.769107061749e+01
3.813018349864e+01
3.765132245951e+01
3.856150814897e+01
3.801301109513e+01
3.855977626885e+01
3.803362663186e+01
3.857036101716e+01
3.801997445035e+01
3.855951417143e+01
3.800109058125e+01
5.024052380580e+01
3.485476146755e+01
3.485354820930e+01
3.485866867481e+01
3.484034723768e+01
3.957089354252e+01
3.950374192716e+01
3.941082711445e+01
3.963999023762e+01
3.514066532806e+01
3.570896436337e+01
3.668559556772e+01
3.669178202967e+01
3.568311026281e+01
3.515031074797e+01
3.513702074323e+01
3.544676461739e+01
3.516519806957e+01
3.513834940228e+01
3.570841369375e+01
3.667234050182e+01
3.513859980064e+01
3.544728518826e+01
3.515885936485e+01
3.511854767552e+01
3.574243510655e+01
3.667873453483e+01
3.513420931510e+01
3.544564354202e+01
3.516725529814e+01
3.516623053705e+01
3.544639747554e+01
3.513579497229e+01
3.575100949060e+01
3.538291381911e+01
3.574963809591e+01
3.539505163690e+01
3.575583739155e+01
3.538834103012e+01
3.574835385047e+01
3.537479831969e+01
4.890570159744e+01
3.417242373714e+01
3.417115993194e+01
3.417251302385e+01
3.416410083029e+01
3.593129800164e+01
3.593590597061e+01
3.596430388810e+01
3.588841478984e+01
3.438653601341e+01
3.482948664049e+01
3.541827504347e+01
3.543401374877e+01
3.481424302868e+01
3.439069918530e+01
3.438193924524e+01
3.462343674376e+01
3.441111481121e+01
3.438487087242e+01
3.482910598778e+01
3.541561544743e+01
3.438308458670e+01
3.462397824410e+01
3.440611070006e+01
3.437433524299e+01
3.484936284650e+01
3.540184728303e+01
3.437991479464e+01
3.462336669012e+01
3.441205394212e+01
3.441124546519e+01
3.462354759211e+01
3.438128004044e+01
3.488900334846e+01
3.457432247866e+01
3.488725520207e+01
3.458418142433e+01
3.489163286686e+01
3.457897258822e+01
3.488702573053e+01
3.456825685014e+01
3.445853707860e+01
3.349460403221e+01
3.349337285862e+01
3.349336980481e+01
3.349005681567e+01
3.427889955502e+01
3.428765621956e+01
3.430275538488e+01
3.426704051621e+01
3.364236412219e+01
3.394699217635e+01
3.425543112977e+01
3.426460356360e+01
3.393935531278e+01
3.364400416572e+01
3.363975063354e+01
3.381113142699e+01
3.366257988074e+01
3.364131519038e+01
3.394702333612e+01
3.425776533653e+01
3.364052710283e+01
3.381152606521e+01
3.365906157958e+01
3.363603858453e+01
3.395785080599e+01
3.425153368560e+01
3.363862215294e+01
3.381160628418e+01
3.366300761916e+01
3.366239759133e+01
3.381152133414e+01
3.363966437250e+01
3.400668317257e+01
3.377431973491e+01
3.400471494843e+01
3.378170565396e+01
3.400667214785e+01
3.377772464327e+01
3.400449623322e+01
3.377027733012e+01
3.460397991712e+01
3.285114937114e+01
3.285016995880e+01
3.285008855996e+01
3.284865770105e+01
3.337634214959e+01
3.337840396336e+01
3.338146910683e+01
3.337526130222e+01
3.294532994606e+01
3.312992198618e+01
3.330724271107e+01
3.331194189466e+01
3.312547140293e+01
3.294663081875e+01
3.294613564918e+01
3.305515311604e+01
3.295928376255e+01
3.294455454297e+01
3.313005502514e+01
3.330869487612e+01
3.294637961341e+01
3.305534020773e+01
3.295707911673e+01
3.294128024440e+01
3.313671474462e+01
3.330661053961e+01
3.294518833576e+01
3.305550683769e+01
3.295949735531e+01
3.295910281992e+01
3.305542927655e+01
3.294613450895e+01
3.317055864718e+01
3.302850121363e+01
3.316930576852e+01
3.303338996823e+01
3.317060437060e+01
3.303054269115e+01
3.316930158422e+01
3.302609752956e+01
3.333080333024e+01
3.226761528588e+01
3.226687852655e+01
3.226664034077e+01
3.226668749035e+01
3.254236893076e+01
3.254384931763e+01
3.254692849885e+01
3.253976890955e+01
3.232148972925e+01
3.242024547644e+01
3.251402414148e+01
3.251679399176e+01
3.241780533051e+01
3.232245698175e+01
3.232422403623e+01
3.238621530424e+01
3.233067622665e+01
3.232093798615e+01
3.242031759419e+01
3.251466890151e+01
3.232409247481e+01
3.238629142602e+01
3.232941775943e+01
3.231915214931e+01
3.242412831572e+01
3.251325636402e+01
3.232340464103e+01
3.238648075233e+01
3.233068557238e+01
3.233047801946e+01
3.238640107098e+01
3.232425333485e+01
3.244398214978e+01
3.236822649322e+01
3.244330313573e+01
3.237114981389e+01
3.244423768011e+01
3.236934428186e+01
3.244350167417e+01
3.236703863479e+01
3.255544708959e+01
3.066526452692e+01
3.066516351494e+01
3.066516036205e+01
3.066552546227e+01
3.066028456714e+01
3.066021074767e+01
3.066003755163e+01
3.066053729784e+01
3.066557515211e+01
3.066407296200e+01
3.066128763042e+01
3.066127083455e+01
3.066417311103e+01
3.066571149171e+01
3.066634928328e+01
3.066663641068e+01
3.066603861092e+01
3.066551475296e+01
3.066406481165e+01
3.066127317771e+01
3.066618803005e+01
3.066657620824e+01
3.066599946010e+01
3.066562154773e+01