# vtk DataFile Version 3.0
Unstructured Grid from OpenGeoSys
ASCII
DATASET UNSTRUCTURED_GRID
FIELD TimesAndCycles 2
TIME 1 1 double
3.600000000000e+03
CYLCE 1 1 long
1
POINTS 1394 double
0.000000000000e+00 0.000000000000e+00 0.000000000000e+00
5.000000000000e+00 0.000000000000e+00 0.000000000000e+00
5.000000000000e+00 5.000000000000e+00 0.000000000000e+00
0.000000000000e+00 5.000000000000e+00 0.000000000000e+00
2.244234909000e+00 2.244234909000e+00 0.000000000000e+00
2.755765091000e+00 2.244234909000e+00 0.000000000000e+00
2.755765091000e+00 2.755765091000e+00 0.000000000000e+00
2.244234909000e+00 2.755765091000e+00 0.000000000000e+00
7.141316008320e-01 7.141316008320e-01 0.000000000000e+00
1.314642334730e+00 1.314642334730e+00 0.000000000000e+00
1.819609643610e+00 1.819609643610e+00 0.000000000000e+00
1.819609643610e+00 3.180390356390e+00 0.000000000000e+00
1.314642334740e+00 3.685357665260e+00 0.000000000000e+00
7.141316008360e-01 4.285868399160e+00 0.000000000000e+00
0.000000000000e+00 3.750000000000e+00 0.000000000000e+00
0.000000000000e+00 2.500000000000e+00 0.000000000000e+00
0.000000000000e+00 1.250000000000e+00 0.000000000000e+00
4.285868399170e+00 7.141316008320e-01 0.000000000000e+00
3.685357665270e+00 1.314642334730e+00 0.000000000000e+00
3.180390356390e+00 1.819609643610e+00 0.000000000000e+00
1.250000000000e+00 0.000000000000e+00 0.000000000000e+00
2.500000000000e+00 0.000000000000e+00 0.000000000000e+00
3.750000000000e+00 0.000000000000e+00 0.000000000000e+00
4.285868399170e+00 4.285868399170e+00 0.000000000000e+00
3.685357665270e+00 3.685357665270e+00 0.000000000000e+00
3.180390356390e+00 3.180390356390e+00 0.000000000000e+00
5.000000000000e+00 1.250000000000e+00 0.000000000000e+00
5.000000000000e+00 2.500000000000e+00 0.000000000000e+00
5.000000000000e+00 3.750000000000e+00 0.000000000000e+00
3.750000000000e+00 5.000000000000e+00 0.000000000000e+00
2.500000000000e+00 5.000000000000e+00 0.000000000000e+00
1.250000000000e+00 5.000000000000e+00 0.000000000000e+00
9.560744151940e-01 2.677827143250e+00 0.000000000000e+00
6.659597640160e-01 1.438876720610e+00 0.000000000000e+00
2.309219871940e+00 9.522638293400e-01 0.000000000000e+00
3.458157207860e+00 6.354750772000e-01 0.000000000000e+00
4.043925584810e+00 2.322172856750e+00 0.000000000000e+00
4.334040235980e+00 3.561123279390e+00 0.000000000000e+00
2.318530875810e+00 4.048536535600e+00 0.000000000000e+00
3.552396921680e+00 4.370927842320e+00 0.000000000000e+00
2.500000000000e+00 2.500000000000e+00 0.000000000000e+00
0.000000000000e+00 0.000000000000e+00 -5.000000000000e-01
5.000000000000e+00 0.000000000000e+00 -5.000000000000e-01
5.000000000000e+00 5.000000000000e+00 -5.000000000000e-01
0.000000000000e+00 5.000000000000e+00 -5.000000000000e-01
2.244234909000e+00 2.244234909000e+00 -5.000000000000e-01
2.755765091000e+00 2.244234909000e+00 -5.000000000000e-01
2.755765091000e+00 2.755765091000e+00 -5.000000000000e-01
2.244234909000e+00 2.755765091000e+00 -5.000000000000e-01
7.141316008320e-01 7.141316008320e-01 -5.000000000000e-01
1.314642334730e+00 1.314642334730e+00 -5.000000000000e-01
1.819609643610e+00 1.819609643610e+00 -5.000000000000e-01
1.819609643610e+00 3.180390356390e+00 -5.000000000000e-01
1.314642334740e+00 3.685357665260e+00 -5.000000000000e-01
7.141316008360e-01 4.285868399160e+00 -5.000000000000e-01
0.000000000000e+00 3.750000000000e+00 -5.000000000000e-01
0.000000000000e+00 2.500000000000e+00 -5.000000000000e-01
0.000000000000e+00 1.250000000000e+00 -5.000000000000e-01
4.285868399170e+00 7.141316008320e-01 -5.000000000000e-01
3.685357665270e+00 1.314642334730e+00 -5.000000000000e-01
3.180390356390e+00 1.819609643610e+00 -5.000000000000e-01
1.250000000000e+00 0.000000000000e+00 -5.000000000000e-01
2.500000000000e+00 0.000000000000e+00 -5.000000000000e-01
3.750000000000e+00 0.000000000000e+00 -5.000000000000e-01
4.285868399170e+00 4.285868399170e+00 -5.000000000000e-01
3.685357665270e+00 3.685357665270e+00 -5.000000000000e-01
3.180390356390e+00 3.180390356390e+00 -5.000000000000e-01
5.000000000000e+00 1.250000000000e+00 -5.000000000000e-01
5.000000000000e+00 2.500000000000e+00 -5.000000000000e-01
5.000000000000e+00 3.750000000000e+00 -5.000000000000e-01
3.750000000000e+00 5.000000000000e+00 -5.000000000000e-01
2.500000000000e+00 5.000000000000e+00 -5.000000000000e-01
1.250000000000e+00 5.000000000000e+00 -5.000000000000e-01
9.560744151940e-01 2.677827143250e+00 -5.000000000000e-01
6.659597640160e-01 1.438876720610e+00 -5.000000000000e-01
2.309219871940e+00 9.522638293400e-01 -5.000000000000e-01
3.458157207860e+00 6.354750772000e-01 -5.000000000000e-01
4.043925584810e+00 2.322172856750e+00 -5.000000000000e-01
4.334040235980e+00 3.561123279390e+00 -5.000000000000e-01
2.318530875810e+00 4.048536535600e+00 -5.000000000000e-01
3.552396921680e+00 4.370927842320e+00 -5.000000000000e-01
2.500000000000e+00 2.500000000000e+00 -5.000000000000e-01
0.000000000000e+00 0.000000000000e+00 -1.000000000000e+00
5.000000000000e+00 0.000000000000e+00 -1.000000000000e+00
5.000000000000e+00 5.000000000000e+00 -1.000000000000e+00
0.000000000000e+00 5.000000000000e+00 -1.000000000000e+00
2.244234909000e+00 2.244234909000e+00 -1.000000000000e+00
2.755765091000e+00 2.244234909000e+00 -1.000000000000e+00
2.755765091000e+00 2.755765091000e+00 -1.000000000000e+00
2.244234909000e+00 2.755765091000e+00 -1.000000000000e+00
7.141316008320e-01 7.141316008320e-01 -1.000000000000e+00
1.314642334730e+00 1.314642334730e+00 -1.000000000000e+00
1.819609643610e+00 1.819609643610e+00 -1.000000000000e+00
1.819609643610e+00 3.180390356390e+00 -1.000000000000e+00
1.314642334740e+00 3.685357665260e+00 -1.000000000000e+00
7.141316008360e-01 4.285868399160e+00 -1.000000000000e+00
0.000000000000e+00 3.750000000000e+00 -1.000000000000e+00
0.000000000000e+00 2.500000000000e+00 -1.000000000000e+00
0.000000000000e+00 1.250000000000e+00 -1.000000000000e+00
4.285868399170e+00 7.141316008320e-01 -1.000000000000e+00
3.685357665270e+00 1.314642334730e+00 -1.000000000000e+00
3.180390356390e+00 1.819609643610e+00 -1.000000000000e+00
1.250000000000e+00 0.000000000000e+00 -1.000000000000e+00
2.500000000000e+00 0.000000000000e+00 -1.000000000000e+00
3.750000000000e+00 0.000000000000e+00 -1.000000000000e+00
4.285868399170e+00 4.285868399170e+00 -1.000000000000e+00
3.685357665270e+00 3.685357665270e+00 -1.000000000000e+00
3.180390356390e+00 3.180390356390e+00 -1.000000000000e+00
5.000000000000e+00 1.250000000000e+00 -1.000000000000e+00
5.000000000000e+00 2.500000000000e+00 -1.000000000000e+00
5.000000000000e+00 3.750000000000e+00 -1.000000000000e+00
3.750000000000e+00 5.000000000000e+00 -1.000000000000e+00
2.500000000000e+00 5.000000000000e+00 -1.000000000000e+00
1.250000000000e+00 5.000000000000e+00 -1.000000000000e+00
9.560744151940e-01 2.677827143250e+00 -1.000000000000e+00
6.659597640160e-01 1.438876720610e+00 -1.000000000000e+00
2.309219871940e+00 9.522638293400e-01 -1.000000000000e+00
3.458157207860e+00 6.354750772000e-01 -1.000000000000e+00
4.043925584810e+00 2.322172856750e+00 -1.000000000000e+00
4.334040235980e+00 3.561123279390e+00 -1.000000000000e+00
2.318530875810e+00 4.048536535600e+00 -1.000000000000e+00
3.552396921680e+00 4.370927842320e+00 -1.000000000000e+00
2.500000000000e+00 2.500000000000e+00 -1.000000000000e+00
0.000000000000e+00 0.000000000000e+00 -3.000000000000e+00
5.000000000000e+00 0.000000000000e+00 -3.000000000000e+00
5.000000000000e+00 5.000000000000e+00 -3.000000000000e+00
0.000000000000e+00 5.000000000000e+00 -3.000000000000e+00
2.244234909000e+00 2.244234909000e+00 -3.000000000000e+00
2.755765091000e+00 2.244234909000e+00 -3.000000000000e+00
2.755765091000e+00 2.755765091000e+00 -3.000000000000e+00
2.244234909000e+00 2.755765091000e+00 -3.000000000000e+00
7.141316008320e-01 7.141316008320e-01 -3.000000000000e+00
1.314642334730e+00 1.314642334730e+00 -3.000000000000e+00
1.819609643610e+00 1.819609643610e+00 -3.000000000000e+00
1.819609643610e+00 3.180390356390e+00 -3.000000000000e+00
1.314642334740e+00 3.685357665260e+00 -3.000000000000e+00
7.141316008360e-01 4.285868399160e+00 -3.000000000000e+00
0.000000000000e+00 3.750000000000e+00 -3.000000000000e+00
0.000000000000e+00 2.500000000000e+00 -3.000000000000e+00
0.000000000000e+00 1.250000000000e+00 -3.000000000000e+00
4.285868399170e+00 7.141316008320e-01 -3.000000000000e+00
3.685357665270e+00 1.314642334730e+00 -3.000000000000e+00
3.180390356390e+00 1.819609643610e+00 -3.000000000000e+00
1.250000000000e+00 0.000000000000e+00 -3.000000000000e+00
2.500000000000e+00 0.000000000000e+00 -3.000000000000e+00
3.750000000000e+00 0.000000000000e+00 -3.000000000000e+00
4.285868399170e+00 4.285868399170e+00 -3.000000000000e+00
3.685357665270e+00 3.685357665270e+00 -3.000000000000e+00
3.180390356390e+00 3.180390356390e+00 -3.000000000000e+00
5.000000000000e+00 1.250000000000e+00 -3.000000000000e+00
5.000000000000e+00 2.500000000000e+00 -3.000000000000e+00
5.000000000000e+00 3.750000000000e+00 -3.000000000000e+00
3.750000000000e+00 5.000000000000e+00 -3.000000000000e+00
2.500000000000e+00 5.000000000000e+00 -3.000000000000e+00
1.250000000000e+00 5.000000000000e+00 -3.000000000000e+00
9.560744151940e-01 2.677827143250e+00 -3.000000000000e+00
6.659597640160e-01 1.438876720610e+00 -3.000000000000e+00
2.309219871940e+00 9.522638293400e-01 -3.000000000000e+00
3.458157207860e+00 6.354750772000e-01 -3.000000000000e+00
4.043925584810e+00 2.322172856750e+00 -3.000000000000e+00
4.334040235980e+00 3.561123279390e+00 -3.000000000000e+00
2.318530875810e+00 4.048536535600e+00 -3.000000000000e+00
3.552396921680e+00 4.370927842320e+00 -3.000000000000e+00
2.500000000000e+00 2.500000000000e+00 -3.000000000000e+00
0.000000000000e+00 0.000000000000e+00 -5.000000000000e+00
5.000000000000e+00 0.000000000000e+00 -5.000000000000e+00
5.000000000000e+00 5.000000000000e+00 -5.000000000000e+00
0.000000000000e+00 5.000000000000e+00 -5.000000000000e+00
2.244234909000e+00 2.244234909000e+00 -5.000000000000e+00
[...]
POINT_DATA 1394
SCALARS TEMPERATURE1 double 1
LOOKUP_TABLE default
1.000000000000e+01
1.000000000000e+01
1.000000000000e+01
1.000000000000e+01
1.000000000000e+01
1.000000000000e+01
1.000000000000e+01
1.000000000000e+01
1.000000000000e+01
1.000000000000e+01
1.000000000000e+01
1.000000000000e+01
1.000000000000e+01
1.000000000000e+01
1.000000000000e+01
1.000000000000e+01
1.000000000000e+01
1.000000000000e+01
1.000000000000e+01
1.000000000000e+01
1.000000000000e+01
1.000000000000e+01
1.000000000000e+01
1.000000000000e+01
1.000000000000e+01
1.000000000000e+01
1.000000000000e+01
1.000000000000e+01
1.000000000000e+01
1.000000000000e+01
1.000000000000e+01
1.000000000000e+01
1.000000000000e+01
1.000000000000e+01
1.000000000000e+01
1.000000000000e+01
1.000000000000e+01
1.000000000000e+01
1.000000000000e+01
1.000000000000e+01
1.000000000000e+01
2.570062491456e+01
2.570014173774e+01
2.569547666139e+01
2.570553981914e+01
2.581860786367e+01
2.585632847958e+01
2.585415195095e+01
2.587867995244e+01
2.569119656058e+01
2.573306120205e+01
2.591337859612e+01
2.591665817508e+01
2.572920069066e+01
2.568900341089e+01
2.568791732950e+01
2.567954127524e+01
2.569726255620e+01
2.569167625489e+01
2.573173332936e+01
2.591265311916e+01
2.568739503323e+01
2.568056090872e+01
2.569681026379e+01
2.569301913345e+01
2.573402642032e+01
2.590628037472e+01
2.568803469231e+01
2.568105199763e+01
2.569571550135e+01
2.569596063733e+01
2.568019494661e+01
2.568866857082e+01
2.569835180258e+01
2.568786953057e+01
2.569723772440e+01
2.568685801929e+01
2.569602403907e+01
2.568997247295e+01
2.569672624932e+01
2.568883931287e+01
2.708031896032e+01
3.025082308337e+01
3.025214941008e+01
3.025895616525e+01
3.024132080411e+01
2.945397593813e+01
2.936859733023e+01
2.941724284540e+01
2.924987061627e+01
3.028032958494e+01
3.036830559211e+01
3.003724812412e+01
3.004082992310e+01
3.037570633230e+01
3.027860076618e+01
3.024760780916e+01
3.030065580412e+01
3.026061825411e+01
3.028059464427e+01
3.037106638034e+01
3.005200764691e+01
3.025070153571e+01
3.029809137141e+01
3.026060786436e+01
3.028256278877e+01
3.036612342839e+01
3.005961732885e+01
3.024971386048e+01
3.029746970645e+01
3.026581288739e+01
3.026415507661e+01
3.030008229352e+01
3.024680007684e+01
3.046570294082e+01
3.032336296748e+01
3.046544485893e+01
3.032437295876e+01
3.046371953602e+01
3.032144481749e+01
3.046389649918e+01
3.031840868129e+01
2.351093835572e+01
2.995737034181e+01
2.995961614795e+01
2.997407015296e+01
2.993965122658e+01
2.939589764104e+01
2.932687486125e+01
2.935957115172e+01
2.922793650159e+01
3.002092150519e+01
3.009217809341e+01
2.972175328922e+01
2.971768128465e+01
3.010233742459e+01
3.002364224770e+01
2.999534094958e+01
3.007464979249e+01
2.999433287193e+01
3.002023846013e+01
3.009660421171e+01
2.972774846750e+01
2.999915183798e+01
3.007135753768e+01
2.999413923803e+01
3.001706850976e+01
3.009192431834e+01
2.974004440137e+01
2.999681150392e+01
3.006946724654e+01
3.000069983246e+01
2.999922469932e+01
3.007296595225e+01
2.999321246046e+01
3.021265699665e+01
3.008128512103e+01
3.021391823584e+01
3.008411497802e+01
3.021549641246e+01
3.007803421983e+01
3.021377425746e+01
3.007552013499e+01
2.404584723219e+01
2.997771746042e+01
2.997959564220e+01
2.999159700893e+01
2.996262091667e+01
2.967288471812e+01
2.960023346385e+01
2.959152946221e+01
2.957891279998e+01
3.003405865761e+01
3.012491753915e+01
2.978776161702e+01
2.977997435951e+01
3.013462545222e+01
3.003506270191e+01
3.000495954495e+01
3.008033224890e+01
3.001034486216e+01
3.003388918888e+01
3.012882299993e+01
2.979670033788e+01
3.000878688028e+01
3.007748164865e+01
3.000996706433e+01
3.003225400908e+01
3.012367627923e+01
2.981657753011e+01
3.000709342784e+01
3.007614451523e+01
3.001610191606e+01
3.001464745592e+01
3.007920340599e+01
3.000354780288e+01
3.023810504438e+01
3.009259409736e+01
3.023812447403e+01
3.009504387913e+01
3.023759215491e+01
3.009043969964e+01
3.023707899250e+01
3.008727135359e+01
2.466506718554e+01
2.998545344212e+01
2.998722686455e+01
2.999880085060e+01
2.997096348278e+01
2.985111986272e+01
2.978220429038e+01
2.974850916055e+01
2.980673163121e+01
3.003996455579e+01
3.013208971397e+01
2.981064555269e+01
2.979954051382e+01
3.014191632984e+01
3.004069735094e+01
3.001082682580e+01
3.008424385351e+01
3.001692312088e+01
3.003991528211e+01
3.013597171774e+01
2.981923533540e+01
3.001463639096e+01
3.008155519653e+01
3.001648604664e+01
3.003838930461e+01
3.013060466151e+01
2.984358677608e+01
3.001313849699e+01
3.008033855384e+01
3.002240702599e+01
3.002101051999e+01
3.008323977611e+01
3.000962534106e+01
3.024170458669e+01
3.009715133558e+01
3.024134701634e+01
3.009952501066e+01
3.024022872146e+01
3.009537847290e+01
3.024008683034e+01
3.009212481908e+01
2.521917946982e+01
2.998235368515e+01
2.998395947725e+01
2.999475515248e+01
2.996882210636e+01
3.003565783755e+01
2.996939985425e+01
2.990370893264e+01
3.005319247967e+01
3.003456372341e+01
3.013130652993e+01
2.982375081364e+01
2.980863857014e+01
3.014136226738e+01
3.003473163095e+01
3.000502164766e+01
3.007672846973e+01
3.001291156373e+01
3.003472610169e+01
3.013506342269e+01
2.983284373934e+01
3.000884829236e+01
3.007428097802e+01
3.001236704347e+01
3.003362142036e+01
3.012919561350e+01
2.986313844452e+01
3.000765238844e+01
3.007329753653e+01
3.001801032228e+01
3.001668820810e+01
3.007595660881e+01
3.000415554637e+01
3.023775724432e+01
3.009064490606e+01
3.023677511074e+01
3.009296876104e+01
3.023468112727e+01
3.008943171817e+01
3.023515640295e+01
3.008598026219e+01
2.565667746574e+01
2.998328538422e+01
2.998497922456e+01
2.999608670526e+01
2.996935034237e+01
2.982716851226e+01
2.975834031384e+01
2.972419828237e+01
2.978474915615e+01
3.003561665752e+01
3.012478878699e+01
2.980221528315e+01
2.979126991875e+01
3.013455667081e+01
3.003617160824e+01
3.000719054178e+01
3.007838735636e+01
3.001350629828e+01
3.003560748991e+01
3.012853900775e+01
2.981123598723e+01
3.001091159096e+01
3.007578329112e+01
3.001308581837e+01
3.003436431466e+01
3.012301750706e+01
2.983549268111e+01
3.000950588830e+01
3.007466342521e+01
3.001881775248e+01
3.001745556061e+01
3.007745734955e+01
3.000607480614e+01
3.023281935038e+01
3.009099276357e+01
3.023237714512e+01
3.009332393529e+01
3.023110499295e+01
3.008928170481e+01
3.023109588798e+01
3.008611828625e+01
2.540285198698e+01
2.998576256470e+01
2.998708761154e+01
2.999629196393e+01
2.997422273397e+01
2.989839487236e+01
2.983880148323e+01
2.977498995183e+01
2.992465203958e+01
3.002984097383e+01
3.011176031973e+01
2.979901579827e+01
2.978454218800e+01
3.012178947814e+01
3.002946391019e+01
3.000375008868e+01
3.006654366081e+01
3.001165256010e+01
3.003009760126e+01
3.011509264845e+01
2.980900908675e+01
3.000720040762e+01
3.006441594587e+01
3.001117955925e+01
3.002993300577e+01
3.010852574738e+01
2.983794503104e+01
3.000630539844e+01
3.006374681925e+01
3.001604673446e+01
3.001488485578e+01
3.006599616530e+01
3.000315172632e+01
3.021191823367e+01
3.007850698980e+01
3.021071845966e+01
3.008069944421e+01
3.020828413400e+01
3.007750227847e+01
3.020917590805e+01
3.007449413323e+01
2.619314497059e+01
2.998753508049e+01
2.998865620910e+01
2.999671696296e+01
2.997748262490e+01
2.981018727205e+01
2.976087673941e+01
2.969672524021e+01
2.985241990184e+01
3.002587154469e+01
3.009672184038e+01
2.979039175828e+01
2.977598878037e+01
3.010668123491e+01
3.002515860123e+01
3.000267587977e+01
3.005862797128e+01
3.001029502913e+01
3.002617596361e+01
3.009976680326e+01
2.980029715085e+01
3.000581605569e+01
3.005677587015e+01
3.000985286223e+01
3.002654980015e+01
3.009278252799e+01
2.982808710088e+01
3.000513210218e+01
3.005630777918e+01
3.001408731441e+01
3.001307543563e+01
3.005822733702e+01
3.000226524813e+01
3.019040829145e+01
3.006889611003e+01
3.018906103482e+01
3.007098049324e+01
3.018647339185e+01
3.006812696997e+01
3.018763533857e+01
3.006544898453e+01
2.665364967069e+01
2.998885337928e+01
2.998982636708e+01
2.999702716785e+01
2.997991725288e+01
2.972731855768e+01
2.968578132281e+01
2.962482446583e+01
2.977547046307e+01
3.002277898527e+01
3.008441558220e+01
2.978392116007e+01
2.977006446654e+01
3.009422192997e+01
3.002186491721e+01
3.000197353646e+01
3.005251497293e+01
3.000918220257e+01
3.002310002274e+01
3.008722557548e+01
2.979367151895e+01
3.000485554942e+01
3.005086401804e+01
3.000877492917e+01
3.002384528483e+01
3.008002366725e+01
2.981983787888e+01
3.000430963254e+01
3.005053217545e+01
3.001252492855e+01
3.001162750734e+01
3.005220913348e+01
3.000167891954e+01
3.017281160847e+01
3.006133734771e+01
3.017141636911e+01
3.006333076403e+01
3.016881593984e+01
3.006070361507e+01
3.017012005059e+01
3.005831038763e+01
2.694805128111e+01
2.998984038075e+01
2.999070839559e+01
2.999727018963e+01
2.998172631153e+01
2.966913331113e+01
2.963326105807e+01
2.957583787110e+01
2.971940648820e+01
3.002051499744e+01
3.007556678515e+01
2.978193350776e+01
2.976868513687e+01
3.008516583106e+01
3.001947472048e+01
3.000145371817e+01
3.004793710947e+01
3.000833564260e+01
3.002084167508e+01
3.007819436940e+01
2.979148386526e+01
3.000413624889e+01
3.004643189754e+01
3.000795642144e+01
3.002182792212e+01
3.007092976315e+01
2.981615070654e+01
3.000368264470e+01
3.004619004316e+01
3.001135413016e+01
3.001053883941e+01
3.004769397949e+01
3.000123408714e+01
3.015960544132e+01
3.005576517893e+01
3.015820096795e+01
3.005767496446e+01
3.015563222297e+01
3.005522276874e+01
3.015700815214e+01
3.005303883055e+01
2.716796292789e+01
2.999052209216e+01
2.999132013787e+01
2.999743076543e+01
2.998297834439e+01
2.963571720532e+01
2.960355213772e+01
2.954900819972e+01
2.968638329577e+01
3.001897335056e+01
3.006995741022e+01
2.978337675670e+01
2.977065927296e+01
3.007933599427e+01
3.001785379876e+01
3.000104213711e+01
3.004472623203e+01
3.000773592444e+01
3.001930290385e+01
3.007245022852e+01
2.979274523248e+01
3.000358405009e+01
3.004332086553e+01
3.000737526481e+01
3.002043416940e+01
3.006522054023e+01
2.981624233653e+01
3.000319009301e+01
3.004313541752e+01
3.001053710808e+01
3.000977574205e+01
3.004452412133e+01
3.000087040776e+01
3.015063205353e+01
3.005198517782e+01
3.014923136753e+01
3.005382314211e+01
3.014669889412e+01
3.005150728854e+01
3.014810661426e+01
3.004945724584e+01
2.732964897501e+01
2.999092980019e+01
2.999168869603e+01
2.999751714281e+01
2.998372928434e+01
2.962190233619e+01
2.959166057715e+01
2.953931097963e+01
2.967157504237e+01
3.001808799629e+01
3.006728143823e+01
2.978709966333e+01
2.977482194267e+01
3.007645188918e+01
3.001692277612e+01
3.000072240210e+01
3.004278023468e+01
3.000737387012e+01
3.001841982977e+01
3.006968385894e+01
2.979634102584e+01
3.000317994104e+01
3.004143316319e+01
3.000702264103e+01
3.001962278619e+01
3.006255045562e+01
2.981900783934e+01
3.000281809489e+01
3.004127676912e+01
3.001005415101e+01
3.000932112214e+01
3.004260163994e+01
3.000057642864e+01
3.014564538978e+01
3.004984759356e+01
3.014425396958e+01
3.005162871112e+01
3.014175172459e+01
3.004941112583e+01
3.014316319822e+01
3.004742555381e+01
2.743614200515e+01
2.999107654937e+01
2.999182465536e+01
2.999753200952e+01
2.998400061656e+01
2.961716783697e+01
2.958686961367e+01
2.953665523615e+01
2.966320465612e+01
3.001780656289e+01
3.006708952995e+01
2.979066962938e+01
2.977881799183e+01
3.007609507455e+01
3.001662247990e+01
3.000051035101e+01
3.004207709347e+01
3.000724930325e+01
3.001814034850e+01
3.006943967580e+01
2.979992677180e+01
3.000293869152e+01
3.004074599003e+01
3.000690111858e+01
3.001936891094e+01
3.006242122524e+01
2.982202011955e+01
3.000258247207e+01
3.004059693026e+01
3.000990239118e+01
3.000917320076e+01
3.004190678261e+01
3.000036848382e+01
3.014445260671e+01
3.004923709687e+01
3.014307661028e+01
3.005098533443e+01
3.014059796141e+01
3.004880874625e+01
3.014199123209e+01
3.004682990854e+01
2.744796069982e+01
2.999082974611e+01
2.999163188019e+01
2.999752640645e+01
2.998346856733e+01
2.955589603884e+01
2.952244448778e+01
2.948438293466e+01
2.957598537517e+01
3.001829538598e+01
3.006753838387e+01
2.978673550536e+01
2.977661309242e+01
3.007634914097e+01
3.001725440254e+01
3.000082838009e+01
3.004318787611e+01
3.000729010932e+01
3.001857274856e+01
3.006988927170e+01
2.979613402863e+01
3.000326165169e+01
3.004176994215e+01
3.000697757557e+01
3.001971982239e+01
3.006311639822e+01
2.981603876547e+01
3.000280934443e+01
3.004155554557e+01
3.001010192604e+01
3.000933365417e+01
3.004295479863e+01
3.000058152244e+01
3.014606957700e+01
3.005034189468e+01
3.014489280450e+01
3.005209061726e+01
3.014269938745e+01
3.004971743830e+01
3.014388861389e+01
3.004776755002e+01
2.733089595550e+01
2.999078071985e+01
2.999158806805e+01
2.999751221684e+01
2.998337437464e+01
2.954168695252e+01
2.950756602740e+01
2.947084048008e+01
2.955862082253e+01
3.001838603250e+01
3.006757929445e+01
2.978384743596e+01
2.977389970117e+01
3.007642516874e+01
3.001734786170e+01
3.000089446236e+01
3.004348127321e+01
3.000735582136e+01
3.001866103084e+01
3.006992951452e+01
2.979338137970e+01
3.000333755536e+01
3.004205107890e+01
3.000704603396e+01
3.001982762157e+01
3.006312142521e+01
2.981312056022e+01
3.000287668321e+01
3.004183600137e+01
3.001018864765e+01
3.000941564923e+01
3.004324525492e+01
3.000063914897e+01
3.014670898989e+01
3.005057905944e+01
3.014554276086e+01
3.005234349451e+01
3.014336144638e+01
3.004992901527e+01
3.014454408760e+01
3.004798148923e+01
2.723730089877e+01
2.999067510472e+01
2.999150474204e+01
2.999752981535e+01
2.998313380553e+01
2.950344549240e+01
2.946802153398e+01
2.943673623830e+01
2.950890645718e+01
3.001852945189e+01
3.006680364429e+01
2.977795135076e+01
2.976871227553e+01
3.007564903103e+01
3.001755598541e+01
3.000108733388e+01
3.004394505853e+01
3.000732739801e+01
3.001877650472e+01
3.006916640800e+01
2.978759065854e+01
3.000353181784e+01
3.004247305450e+01
3.000703928061e+01
3.001992844540e+01
3.006238241236e+01
2.980641575900e+01
3.000302952204e+01
3.004223291183e+01
3.001022800741e+01
3.000943959922e+01
3.004367991523e+01
3.000078483070e+01
3.014688365780e+01
3.005087168866e+01
3.014580733078e+01
3.005265074950e+01
3.014375295372e+01
3.005011885709e+01
3.014485560201e+01
3.004820776790e+01
2.715004867786e+01
2.999053982643e+01
2.999139467005e+01
2.999750677708e+01
2.998286089266e+01
2.946334753463e+01
2.942666152237e+01
2.940219650603e+01
2.945506074968e+01
3.001885241060e+01
3.006694327002e+01
2.977557976217e+01
2.976730601895e+01
3.007569202385e+01
3.001795724479e+01
3.000146178027e+01
3.004476739768e+01
3.000752814555e+01
3.001906911852e+01
3.006929007492e+01
2.978531772602e+01
3.000390508256e+01
3.004325913343e+01
3.000725390329e+01
3.002018437164e+01
3.006261594732e+01
2.980286954376e+01
3.000335207153e+01
3.004298894492e+01
3.001049250325e+01
3.000969206781e+01
3.004447286817e+01
3.000110511362e+01
3.014762140090e+01
3.005151119466e+01
3.014664659560e+01
3.005330516810e+01
3.014475140818e+01
3.005066183960e+01
3.014574968845e+01
3.004877251544e+01
2.700247485099e+01
2.998994069381e+01
2.999089273808e+01
2.999756613261e+01
2.998159124105e+01
2.934123954603e+01
2.930059367792e+01
2.929040328204e+01
2.930157171781e+01
3.001957940644e+01
3.006456151885e+01
2.974885831987e+01
2.974212601215e+01
3.007364442259e+01
3.001890318789e+01
3.000197329302e+01
3.004688903205e+01
3.000722142046e+01
3.001970406357e+01
3.006706781241e+01
2.975889089462e+01
3.000448015570e+01
3.004519867843e+01
3.000701866482e+01
3.002074341415e+01
3.006024253367e+01
2.977446728616e+01
3.000378070842e+01
3.004482679279e+01
3.001047922827e+01
3.000960873052e+01
3.004647617505e+01
3.000145287428e+01
3.015028837394e+01
3.005323901669e+01
3.014958405127e+01
3.005511771006e+01
3.014805452510e+01
3.005203819559e+01
3.014882570945e+01
3.005024676648e+01
2.688294725289e+01
2.999463222308e+01
2.999505733169e+01
2.999858124085e+01
2.999024816501e+01
2.973132087923e+01
2.970502783104e+01
2.966295278097e+01
2.976981112225e+01
3.001037533463e+01
3.003973135268e+01
2.982737410570e+01
2.981829408301e+01
3.004638102116e+01
3.000925249948e+01
2.999873213964e+01
3.002540187744e+01
3.000380021679e+01
3.001067421593e+01
3.004136212157e+01
2.983492273341e+01
3.000037794886e+01
3.002451615778e+01
3.000362436076e+01
3.001203336086e+01
3.003589292399e+01
2.985233791452e+01
3.000028109123e+01
3.002456474512e+01
3.000557101517e+01
3.000505619032e+01
3.002538939111e+01
2.999876604961e+01
3.009523082841e+01
3.003026358386e+01
3.009410288683e+01
3.003145190853e+01
3.009195861932e+01
3.002992698821e+01
3.009321031727e+01
3.002867731624e+01
2.752436049573e+01
2.999673160022e+01
2.999703512181e+01
2.999880667460e+01
2.999438354450e+01
2.984463753401e+01
2.984169742661e+01
2.983846623363e+01
2.984577834379e+01
3.000722985107e+01
3.003463259733e+01
2.997940725097e+01
2.997771178241e+01
3.003671479063e+01
3.000682484719e+01
3.000018783754e+01
3.001555886159e+01
3.000346094796e+01
3.000732940920e+01
3.003524360843e+01
2.998172105481e+01
3.000099362934e+01
3.001515108301e+01
3.000324433812e+01
3.000749539009e+01
3.003381189071e+01
2.998519235930e+01
3.000077659064e+01
3.001500177739e+01
3.000432647685e+01
3.000408547094e+01
3.001546610627e+01
3.000007081657e+01
3.005556544677e+01
3.001956623194e+01
3.005519936914e+01
3.002003010560e+01
3.005469225059e+01
3.001963403964e+01
3.005491005413e+01
3.001868917110e+01
3.030157329011e+01
2.999863226103e+01
2.999876281306e+01
2.999924546578e+01
2.999783903977e+01
3.003770707084e+01
3.003848932891e+01
3.003773894678e+01
3.004014169144e+01
3.000386162291e+01
3.002418385795e+01
3.004004321234e+01
3.004009167518e+01
3.002406312380e+01
3.000371175749e+01
3.000016205530e+01
3.000709231269e+01
3.000238774032e+01
3.000392803531e+01
3.002424260399e+01
3.004033407211e+01
3.000047138702e+01
3.000700416061e+01
3.000221340581e+01
3.000372884670e+01
3.002458234483e+01
3.004059837815e+01
3.000036682289e+01
3.000690344723e+01
3.000267367372e+01
3.000259128361e+01
3.000707220781e+01
3.000012282167e+01
3.002704272443e+01
3.001000669429e+01
3.002687465003e+01
3.001006959197e+01
3.002672843337e+01
3.001026240169e+01
3.002669665404e+01
3.000964385843e+01
2.992014614041e+01
2.999959222552e+01
2.999963751835e+01
2.999969720523e+01
2.999939555153e+01
3.003654545619e+01
3.003667973612e+01
3.003767992023e+01
3.003506381726e+01
3.000151773270e+01
3.001119671731e+01
3.002694360447e+01
3.002737206388e+01
3.001084572370e+01
3.000145218677e+01
2.999994830239e+01
3.000245651400e+01
3.000103984631e+01
3.000154699331e+01
3.001116116183e+01
3.002694349807e+01
3.000004356215e+01
3.000244410574e+01
3.000096363923e+01
3.000143478736e+01
3.001156110047e+01
3.002652974209e+01
3.000000457717e+01
3.000240209200e+01
3.000113279509e+01
3.000110143159e+01
3.000245740136e+01
2.999993646869e+01
3.001063239817e+01
3.000391573623e+01
3.001057890842e+01
3.000388843445e+01
3.001054584115e+01
3.000404854267e+01
3.001049431028e+01
3.000377112277e+01
3.006498044212e+01
2.999993517222e+01
2.999994262953e+01
2.999994546963e+01
2.999990583592e+01
3.000618864314e+01
3.000626824465e+01
3.000633940139e+01
3.000619338586e+01
3.000029956416e+01
3.000225701824e+01
3.000510315834e+01
3.000516923352e+01
3.000219853464e+01
3.000027722398e+01
2.999998194811e+01
3.000048447386e+01
3.000022278095e+01
3.000030667623e+01
3.000225168229e+01
3.000512017275e+01
3.000000104526e+01
3.000048367381e+01
3.000020740696e+01
3.000029525354e+01
3.000231688739e+01
3.000506926477e+01
2.999999602691e+01
3.000047814623e+01
3.000023903044e+01
3.000023277054e+01
3.000048700388e+01
2.999998238052e+01
3.000219591195e+01
3.000077800284e+01
3.000217990401e+01
3.000077315974e+01
3.000216464733e+01
3.000080687550e+01
3.000216073560e+01
3.000075037756e+01
3.000393969742e+01
3.000001439147e+01
3.000001273937e+01
3.000001252140e+01
3.000002056652e+01
2.999857897101e+01
2.999855973519e+01
2.999854465787e+01
2.999857424318e+01
2.999993401097e+01
2.999948812294e+01
2.999883164357e+01
2.999881650076e+01
2.999950164978e+01
2.999993932669e+01
3.000000679832e+01
2.999989483917e+01
2.999995132117e+01
2.999993234248e+01
2.999948940445e+01
2.999882773098e+01
3.000000251127e+01
2.999989497270e+01
2.999995480064e+01
2.999993472275e+01