# vtk DataFile Version 3.0
Unstructured Grid from OpenGeoSys
ASCII
DATASET UNSTRUCTURED_GRID
FIELD TimesAndCycles 2
TIME 1 1 double
3.600000000000e+03
CYLCE 1 1 long
1
POINTS 1394 double
0.000000000000e+00 0.000000000000e+00 0.000000000000e+00
5.000000000000e+00 0.000000000000e+00 0.000000000000e+00
5.000000000000e+00 5.000000000000e+00 0.000000000000e+00
0.000000000000e+00 5.000000000000e+00 0.000000000000e+00
2.244234909000e+00 2.244234909000e+00 0.000000000000e+00
2.755765091000e+00 2.244234909000e+00 0.000000000000e+00
2.755765091000e+00 2.755765091000e+00 0.000000000000e+00
2.244234909000e+00 2.755765091000e+00 0.000000000000e+00
7.141316008320e-01 7.141316008320e-01 0.000000000000e+00
1.314642334730e+00 1.314642334730e+00 0.000000000000e+00
1.819609643610e+00 1.819609643610e+00 0.000000000000e+00
1.819609643610e+00 3.180390356390e+00 0.000000000000e+00
1.314642334740e+00 3.685357665260e+00 0.000000000000e+00
7.141316008360e-01 4.285868399160e+00 0.000000000000e+00
0.000000000000e+00 3.750000000000e+00 0.000000000000e+00
0.000000000000e+00 2.500000000000e+00 0.000000000000e+00
0.000000000000e+00 1.250000000000e+00 0.000000000000e+00
4.285868399170e+00 7.141316008320e-01 0.000000000000e+00
3.685357665270e+00 1.314642334730e+00 0.000000000000e+00
3.180390356390e+00 1.819609643610e+00 0.000000000000e+00
1.250000000000e+00 0.000000000000e+00 0.000000000000e+00
2.500000000000e+00 0.000000000000e+00 0.000000000000e+00
3.750000000000e+00 0.000000000000e+00 0.000000000000e+00
4.285868399170e+00 4.285868399170e+00 0.000000000000e+00
3.685357665270e+00 3.685357665270e+00 0.000000000000e+00
3.180390356390e+00 3.180390356390e+00 0.000000000000e+00
5.000000000000e+00 1.250000000000e+00 0.000000000000e+00
5.000000000000e+00 2.500000000000e+00 0.000000000000e+00
5.000000000000e+00 3.750000000000e+00 0.000000000000e+00
3.750000000000e+00 5.000000000000e+00 0.000000000000e+00
2.500000000000e+00 5.000000000000e+00 0.000000000000e+00
1.250000000000e+00 5.000000000000e+00 0.000000000000e+00
9.560744151940e-01 2.677827143250e+00 0.000000000000e+00
6.659597640160e-01 1.438876720610e+00 0.000000000000e+00
2.309219871940e+00 9.522638293400e-01 0.000000000000e+00
3.458157207860e+00 6.354750772000e-01 0.000000000000e+00
4.043925584810e+00 2.322172856750e+00 0.000000000000e+00
4.334040235980e+00 3.561123279390e+00 0.000000000000e+00
2.318530875810e+00 4.048536535600e+00 0.000000000000e+00
3.552396921680e+00 4.370927842320e+00 0.000000000000e+00
2.500000000000e+00 2.500000000000e+00 0.000000000000e+00
0.000000000000e+00 0.000000000000e+00 -5.000000000000e-01
5.000000000000e+00 0.000000000000e+00 -5.000000000000e-01
5.000000000000e+00 5.000000000000e+00 -5.000000000000e-01
0.000000000000e+00 5.000000000000e+00 -5.000000000000e-01
2.244234909000e+00 2.244234909000e+00 -5.000000000000e-01
2.755765091000e+00 2.244234909000e+00 -5.000000000000e-01
2.755765091000e+00 2.755765091000e+00 -5.000000000000e-01
2.244234909000e+00 2.755765091000e+00 -5.000000000000e-01
7.141316008320e-01 7.141316008320e-01 -5.000000000000e-01
1.314642334730e+00 1.314642334730e+00 -5.000000000000e-01
1.819609643610e+00 1.819609643610e+00 -5.000000000000e-01
1.819609643610e+00 3.180390356390e+00 -5.000000000000e-01
1.314642334740e+00 3.685357665260e+00 -5.000000000000e-01
7.141316008360e-01 4.285868399160e+00 -5.000000000000e-01
0.000000000000e+00 3.750000000000e+00 -5.000000000000e-01
0.000000000000e+00 2.500000000000e+00 -5.000000000000e-01
0.000000000000e+00 1.250000000000e+00 -5.000000000000e-01
4.285868399170e+00 7.141316008320e-01 -5.000000000000e-01
3.685357665270e+00 1.314642334730e+00 -5.000000000000e-01
3.180390356390e+00 1.819609643610e+00 -5.000000000000e-01
1.250000000000e+00 0.000000000000e+00 -5.000000000000e-01
2.500000000000e+00 0.000000000000e+00 -5.000000000000e-01
3.750000000000e+00 0.000000000000e+00 -5.000000000000e-01
4.285868399170e+00 4.285868399170e+00 -5.000000000000e-01
3.685357665270e+00 3.685357665270e+00 -5.000000000000e-01
3.180390356390e+00 3.180390356390e+00 -5.000000000000e-01
5.000000000000e+00 1.250000000000e+00 -5.000000000000e-01
5.000000000000e+00 2.500000000000e+00 -5.000000000000e-01
5.000000000000e+00 3.750000000000e+00 -5.000000000000e-01
3.750000000000e+00 5.000000000000e+00 -5.000000000000e-01
2.500000000000e+00 5.000000000000e+00 -5.000000000000e-01
1.250000000000e+00 5.000000000000e+00 -5.000000000000e-01
9.560744151940e-01 2.677827143250e+00 -5.000000000000e-01
6.659597640160e-01 1.438876720610e+00 -5.000000000000e-01
2.309219871940e+00 9.522638293400e-01 -5.000000000000e-01
3.458157207860e+00 6.354750772000e-01 -5.000000000000e-01
4.043925584810e+00 2.322172856750e+00 -5.000000000000e-01
4.334040235980e+00 3.561123279390e+00 -5.000000000000e-01
2.318530875810e+00 4.048536535600e+00 -5.000000000000e-01
3.552396921680e+00 4.370927842320e+00 -5.000000000000e-01
2.500000000000e+00 2.500000000000e+00 -5.000000000000e-01
0.000000000000e+00 0.000000000000e+00 -1.000000000000e+00
5.000000000000e+00 0.000000000000e+00 -1.000000000000e+00
5.000000000000e+00 5.000000000000e+00 -1.000000000000e+00
0.000000000000e+00 5.000000000000e+00 -1.000000000000e+00
2.244234909000e+00 2.244234909000e+00 -1.000000000000e+00
2.755765091000e+00 2.244234909000e+00 -1.000000000000e+00
2.755765091000e+00 2.755765091000e+00 -1.000000000000e+00
2.244234909000e+00 2.755765091000e+00 -1.000000000000e+00
7.141316008320e-01 7.141316008320e-01 -1.000000000000e+00
1.314642334730e+00 1.314642334730e+00 -1.000000000000e+00
1.819609643610e+00 1.819609643610e+00 -1.000000000000e+00
1.819609643610e+00 3.180390356390e+00 -1.000000000000e+00
1.314642334740e+00 3.685357665260e+00 -1.000000000000e+00
7.141316008360e-01 4.285868399160e+00 -1.000000000000e+00
0.000000000000e+00 3.750000000000e+00 -1.000000000000e+00
0.000000000000e+00 2.500000000000e+00 -1.000000000000e+00
0.000000000000e+00 1.250000000000e+00 -1.000000000000e+00
4.285868399170e+00 7.141316008320e-01 -1.000000000000e+00
3.685357665270e+00 1.314642334730e+00 -1.000000000000e+00
3.180390356390e+00 1.819609643610e+00 -1.000000000000e+00
1.250000000000e+00 0.000000000000e+00 -1.000000000000e+00
2.500000000000e+00 0.000000000000e+00 -1.000000000000e+00
3.750000000000e+00 0.000000000000e+00 -1.000000000000e+00
4.285868399170e+00 4.285868399170e+00 -1.000000000000e+00
3.685357665270e+00 3.685357665270e+00 -1.000000000000e+00
3.180390356390e+00 3.180390356390e+00 -1.000000000000e+00
5.000000000000e+00 1.250000000000e+00 -1.000000000000e+00
5.000000000000e+00 2.500000000000e+00 -1.000000000000e+00
5.000000000000e+00 3.750000000000e+00 -1.000000000000e+00
3.750000000000e+00 5.000000000000e+00 -1.000000000000e+00
2.500000000000e+00 5.000000000000e+00 -1.000000000000e+00
1.250000000000e+00 5.000000000000e+00 -1.000000000000e+00
9.560744151940e-01 2.677827143250e+00 -1.000000000000e+00
6.659597640160e-01 1.438876720610e+00 -1.000000000000e+00
2.309219871940e+00 9.522638293400e-01 -1.000000000000e+00
3.458157207860e+00 6.354750772000e-01 -1.000000000000e+00
4.043925584810e+00 2.322172856750e+00 -1.000000000000e+00
4.334040235980e+00 3.561123279390e+00 -1.000000000000e+00
2.318530875810e+00 4.048536535600e+00 -1.000000000000e+00
3.552396921680e+00 4.370927842320e+00 -1.000000000000e+00
2.500000000000e+00 2.500000000000e+00 -1.000000000000e+00
0.000000000000e+00 0.000000000000e+00 -3.000000000000e+00
5.000000000000e+00 0.000000000000e+00 -3.000000000000e+00
5.000000000000e+00 5.000000000000e+00 -3.000000000000e+00
0.000000000000e+00 5.000000000000e+00 -3.000000000000e+00
2.244234909000e+00 2.244234909000e+00 -3.000000000000e+00
2.755765091000e+00 2.244234909000e+00 -3.000000000000e+00
2.755765091000e+00 2.755765091000e+00 -3.000000000000e+00
2.244234909000e+00 2.755765091000e+00 -3.000000000000e+00
7.141316008320e-01 7.141316008320e-01 -3.000000000000e+00
1.314642334730e+00 1.314642334730e+00 -3.000000000000e+00
1.819609643610e+00 1.819609643610e+00 -3.000000000000e+00
1.819609643610e+00 3.180390356390e+00 -3.000000000000e+00
1.314642334740e+00 3.685357665260e+00 -3.000000000000e+00
7.141316008360e-01 4.285868399160e+00 -3.000000000000e+00
0.000000000000e+00 3.750000000000e+00 -3.000000000000e+00
0.000000000000e+00 2.500000000000e+00 -3.000000000000e+00
0.000000000000e+00 1.250000000000e+00 -3.000000000000e+00
4.285868399170e+00 7.141316008320e-01 -3.000000000000e+00
3.685357665270e+00 1.314642334730e+00 -3.000000000000e+00
3.180390356390e+00 1.819609643610e+00 -3.000000000000e+00
1.250000000000e+00 0.000000000000e+00 -3.000000000000e+00
2.500000000000e+00 0.000000000000e+00 -3.000000000000e+00
3.750000000000e+00 0.000000000000e+00 -3.000000000000e+00
4.285868399170e+00 4.285868399170e+00 -3.000000000000e+00
3.685357665270e+00 3.685357665270e+00 -3.000000000000e+00
3.180390356390e+00 3.180390356390e+00 -3.000000000000e+00
5.000000000000e+00 1.250000000000e+00 -3.000000000000e+00
5.000000000000e+00 2.500000000000e+00 -3.000000000000e+00
5.000000000000e+00 3.750000000000e+00 -3.000000000000e+00
3.750000000000e+00 5.000000000000e+00 -3.000000000000e+00
2.500000000000e+00 5.000000000000e+00 -3.000000000000e+00
1.250000000000e+00 5.000000000000e+00 -3.000000000000e+00
9.560744151940e-01 2.677827143250e+00 -3.000000000000e+00
6.659597640160e-01 1.438876720610e+00 -3.000000000000e+00
2.309219871940e+00 9.522638293400e-01 -3.000000000000e+00
3.458157207860e+00 6.354750772000e-01 -3.000000000000e+00
4.043925584810e+00 2.322172856750e+00 -3.000000000000e+00
4.334040235980e+00 3.561123279390e+00 -3.000000000000e+00
2.318530875810e+00 4.048536535600e+00 -3.000000000000e+00
3.552396921680e+00 4.370927842320e+00 -3.000000000000e+00
2.500000000000e+00 2.500000000000e+00 -3.000000000000e+00
0.000000000000e+00 0.000000000000e+00 -5.000000000000e+00
5.000000000000e+00 0.000000000000e+00 -5.000000000000e+00
5.000000000000e+00 5.000000000000e+00 -5.000000000000e+00
0.000000000000e+00 5.000000000000e+00 -5.000000000000e+00
2.244234909000e+00 2.244234909000e+00 -5.000000000000e+00
[...]
POINT_DATA 1394
SCALARS TEMPERATURE1 double 1
LOOKUP_TABLE default
1.000000000000e+01
1.000000000000e+01
1.000000000000e+01
1.000000000000e+01
1.000000000000e+01
1.000000000000e+01
1.000000000000e+01
1.000000000000e+01
1.000000000000e+01
1.000000000000e+01
1.000000000000e+01
1.000000000000e+01
1.000000000000e+01
1.000000000000e+01
1.000000000000e+01
1.000000000000e+01
1.000000000000e+01
1.000000000000e+01
1.000000000000e+01
1.000000000000e+01
1.000000000000e+01
1.000000000000e+01
1.000000000000e+01
1.000000000000e+01
1.000000000000e+01
1.000000000000e+01
1.000000000000e+01
1.000000000000e+01
1.000000000000e+01
1.000000000000e+01
1.000000000000e+01
1.000000000000e+01
1.000000000000e+01
1.000000000000e+01
1.000000000000e+01
1.000000000000e+01
1.000000000000e+01
1.000000000000e+01
1.000000000000e+01
1.000000000000e+01
1.000000000000e+01
2.851637033165e+01
2.851671696240e+01
2.851963055019e+01
2.851349940493e+01
2.900940446354e+01
2.899637202358e+01
2.899727520340e+01
2.898480307597e+01
2.852305601976e+01
2.849602239861e+01
2.854594674268e+01
2.854538156992e+01
2.849420905522e+01
2.852606949781e+01
2.852900494739e+01
2.852780853251e+01
2.851920807480e+01
2.852253297075e+01
2.849619452056e+01
2.853957169177e+01
2.852880626653e+01
2.852743839881e+01
2.851939709841e+01
2.851917648547e+01
2.849921140237e+01
2.853849276023e+01
2.852815454989e+01
2.852671352351e+01
2.851968075409e+01
2.851976423410e+01
2.852715049135e+01
2.852827981579e+01
2.848633923303e+01
2.852120427738e+01
2.848778788258e+01
2.852134146023e+01
2.849007660300e+01
2.852020096623e+01
2.848849695196e+01
2.852111830238e+01
3.042503957966e+01
3.034393947482e+01
3.034298464459e+01
3.032910295246e+01
3.035697654163e+01
3.051691261113e+01
3.057163680815e+01
3.066852064950e+01
3.043236419562e+01
3.032275667313e+01
3.049337269165e+01
3.105022786368e+01
3.107822702296e+01
3.047768538592e+01
3.031617114905e+01
3.030175762398e+01
3.028985025851e+01
3.033553905807e+01
3.032393390974e+01
3.048945402384e+01
3.105208849057e+01
3.030045305245e+01
3.029207279384e+01
3.033449922726e+01
3.032805930579e+01
3.050064530719e+01
3.101533970623e+01
3.030172677687e+01
3.029310687769e+01
3.033310412848e+01
3.033306968506e+01
3.029154625008e+01
3.030330347681e+01
3.039746015359e+01
3.032583527421e+01
3.039547837861e+01
3.032202610675e+01
3.039314374387e+01
3.033050891905e+01
3.039355568842e+01
3.032615448008e+01
2.444973349261e+01
2.993448143900e+01
2.993369819506e+01
2.991869693609e+01
2.994789303717e+01
3.032130077487e+01
3.036095609598e+01
3.044762306185e+01
3.023344281171e+01
2.991320438617e+01
3.016069774277e+01
3.076569166336e+01
3.079421167099e+01
3.014421009930e+01
2.990387240742e+01
2.987112204219e+01
2.987058945874e+01
2.991917326985e+01
2.991494234912e+01
3.015743311872e+01
3.077099656437e+01
2.987065266496e+01
2.987237051659e+01
2.991791375306e+01
2.992063700350e+01
3.016963555724e+01
3.073830026863e+01
2.987216311752e+01
2.987343700311e+01
2.991809990726e+01
2.991728188879e+01
2.987248885091e+01
2.987303164087e+01
3.007111826029e+01
2.992994181902e+01
3.006811818250e+01
2.992502730233e+01
3.006356922910e+01
2.993554983154e+01
3.006461025887e+01
2.992877587206e+01
2.442577855724e+01
3.003131781180e+01
3.003059256332e+01
3.001666208254e+01
3.004380232668e+01
3.061067795471e+01
3.064500971837e+01
3.072733926792e+01
3.052222995858e+01
3.001208625509e+01
3.023737114225e+01
3.085137923637e+01
3.087897609208e+01
3.022035366139e+01
3.000421753511e+01
2.997575749432e+01
2.997268773345e+01
3.001820866466e+01
3.001358617802e+01
3.023400088363e+01
3.085424879342e+01
2.997508296924e+01
2.997445016737e+01
3.001704690597e+01
3.001791727720e+01
3.024704733299e+01
3.082187993073e+01
2.997638343987e+01
2.997531343868e+01
3.001703039361e+01
3.001638432445e+01
2.997437564211e+01
2.997741317545e+01
3.014318064615e+01
3.002568749923e+01
3.014075557979e+01
3.002101623361e+01
3.013717912132e+01
3.003082524955e+01
3.013766914638e+01
3.002477347877e+01
2.469223930260e+01
3.000936109570e+01
3.000870100552e+01
2.999547854505e+01
3.002114978279e+01
3.071969110606e+01
3.074746148170e+01
3.082340889890e+01
3.063266618748e+01
2.999148063710e+01
3.020980220929e+01
3.082103886323e+01
3.084751752409e+01
3.019275636420e+01
2.998420098024e+01
2.995625065036e+01
2.995325702539e+01
2.999665602551e+01
2.999289459805e+01
3.020654721184e+01
3.082302457370e+01
2.995558530857e+01
2.995491114028e+01
2.999555263600e+01
2.999661806985e+01
3.021990470889e+01
3.079231514131e+01
2.995678472149e+01
2.995565702540e+01
2.999563663197e+01
2.999498764478e+01
2.995482573036e+01
2.995778778621e+01
3.011606395771e+01
3.000480355413e+01
3.011386403960e+01
3.000020826256e+01
3.011057060451e+01
3.000968250613e+01
3.011084448103e+01
3.000384127781e+01
2.491268322270e+01
3.001271528846e+01
3.001212486268e+01
2.999967435143e+01
3.002375784680e+01
3.085954162401e+01
3.088123373941e+01
3.095215370964e+01
3.077217999713e+01
2.999636305707e+01
3.020588988210e+01
3.081759931358e+01
3.084313629967e+01
3.018869956472e+01
2.998980866632e+01
2.996283768568e+01
2.995960068157e+01
3.000069225315e+01
2.999766569686e+01
3.020271317339e+01
3.081842040700e+01
2.996215051743e+01
2.996115551332e+01
2.999965014148e+01
3.000065046747e+01
3.021650943497e+01
3.078891839271e+01
2.996322341452e+01
2.996176198733e+01
2.999979968039e+01
2.999917126294e+01
2.996102979615e+01
2.996422785790e+01
3.011167373177e+01
3.000907049468e+01
3.010976444000e+01
3.000456899950e+01
3.010688437818e+01
3.001366226838e+01
3.010687236470e+01
3.000809613349e+01
2.510152661998e+01
3.001253062774e+01
3.001186742785e+01
2.999895222061e+01
3.002408265170e+01
3.069264282004e+01
3.072101947385e+01
3.079298723449e+01
3.061346908883e+01
2.999498708634e+01
3.020606183251e+01
3.079817169499e+01
3.082361125511e+01
3.018960555550e+01
2.998788540820e+01
2.996118494299e+01
2.995800785892e+01
3.000039171062e+01
2.999637238450e+01
3.020286561778e+01
3.080018395408e+01
2.996052765190e+01
2.995965324731e+01
2.999930801529e+01
3.000004796125e+01
3.021568756609e+01
3.077063030634e+01
2.996171852593e+01
2.996040774482e+01
2.999932133969e+01
2.999871956043e+01
2.995955637287e+01
2.996270630334e+01
3.011492526278e+01
3.000761500901e+01
3.011273575553e+01
3.000318581087e+01
3.010948275002e+01
3.001240108872e+01
3.010981182535e+01
3.000675181555e+01
2.509341850828e+01
3.001081192816e+01
3.001022905836e+01
2.999909550053e+01
3.002079119331e+01
3.073970311204e+01
3.076181398333e+01
3.081607977998e+01
3.068208510425e+01
2.999588236665e+01
3.017798652061e+01
3.070748225041e+01
3.072868286052e+01
3.016330323003e+01
2.998996461192e+01
2.996720713031e+01
2.996384828455e+01
3.000060010595e+01
2.999707920949e+01
3.017514429929e+01
3.070860086227e+01
2.996660197556e+01
2.996531049967e+01
2.999965064980e+01
2.999992997430e+01
3.018671764416e+01
3.068424816967e+01
2.996763766763e+01
2.996594167463e+01
2.999962094126e+01
2.999913151653e+01
2.996518430518e+01
2.996853052476e+01
3.009585737089e+01
3.000638750537e+01
3.009397747653e+01
3.000252669218e+01
3.009118193152e+01
3.001056835479e+01
3.009140973295e+01
3.000571144348e+01
2.570666184209e+01
3.000955574492e+01
3.000902281790e+01
2.999917204016e+01
3.001841849440e+01
3.068394969700e+01
3.070381114502e+01
3.074598638580e+01
3.064382428595e+01
2.999629297794e+01
3.015684809519e+01
3.062389101521e+01
3.064178597752e+01
3.014400738072e+01
2.999103546912e+01
2.997108609102e+01
2.996802706597e+01
3.000060689754e+01
2.999737250657e+01
3.015434369822e+01
3.062489460642e+01
2.997056269005e+01
2.996934490100e+01
2.999975476857e+01
2.999990768204e+01
3.016443051817e+01
3.060454495612e+01
2.997151274683e+01
2.996992853083e+01
2.999969364241e+01
2.999927664878e+01
2.996923063326e+01
2.997229436240e+01
3.008435539302e+01
3.000545081512e+01
3.008261263926e+01
3.000206343805e+01
3.008001839890e+01
3.000920404278e+01
3.008030654989e+01
3.000491009213e+01
2.614039703240e+01
3.000859849810e+01
3.000810506034e+01
2.999924922316e+01
3.001659471758e+01
3.062847565059e+01
3.064684139744e+01
3.068033039946e+01
3.060100242814e+01
2.999660559296e+01
3.014031709662e+01
3.055732558982e+01
3.057272037504e+01
3.012894670038e+01
2.999184679694e+01
2.997408063712e+01
2.997128078406e+01
3.000061058537e+01
2.999759241418e+01
3.013808285744e+01
3.055827889884e+01
2.997362170086e+01
2.997248369159e+01
2.999983619952e+01
2.999990707481e+01
3.014697385362e+01
3.054092653530e+01
2.997450423253e+01
2.997303170574e+01
2.999975164446e+01
2.999938922268e+01
2.997238104020e+01
2.997519776973e+01
3.007557337300e+01
3.000472534372e+01
3.007393897146e+01
3.000170889183e+01
3.007150470766e+01
3.000813989716e+01
3.007184236036e+01
3.000428548033e+01
2.648132745118e+01
3.000788057337e+01
3.000741837210e+01
2.999930625092e+01
3.001522647601e+01
3.058779541817e+01
3.060498793566e+01
3.063246493229e+01
3.056881903443e+01
2.999684591186e+01
3.012798083568e+01
3.050841028635e+01
3.052201782822e+01
3.011767522600e+01
2.999247092809e+01
2.997633601460e+01
2.997370621279e+01
3.000060870617e+01
2.999776002865e+01
3.012594569719e+01
3.050929390480e+01
2.997592124493e+01
2.997482212404e+01
2.999989398822e+01
2.999989655357e+01
3.013397867231e+01
3.049406402365e+01
2.997674927115e+01
2.997533945881e+01
2.999979344213e+01
2.999947122134e+01
2.997472628402e+01
2.997738030772e+01
3.006887675677e+01
3.000418078668e+01
3.006733483191e+01
3.000143647892e+01
3.006503798711e+01
3.000733619262e+01
3.006539902808e+01
3.000381237498e+01
2.675011241935e+01
3.000738924976e+01
3.000694956411e+01
2.999934660812e+01
3.001428846708e+01
3.056246132724e+01
3.057878054726e+01
3.060248362696e+01
3.054857963418e+01
2.999702093053e+01
3.011950735052e+01
3.047590038905e+01
3.048834983568e+01
3.010989222457e+01
2.999292350088e+01
2.997792388240e+01
2.997537050921e+01
3.000061628105e+01
2.999788197279e+01
3.011760331044e+01
3.047669730927e+01
2.997753447088e+01
2.997642710040e+01
2.999994355618e+01
2.999987902070e+01
3.012508834526e+01
3.046282325727e+01
2.997832155862e+01
2.997691962675e+01
2.999983130158e+01
2.999953726460e+01
2.997633303619e+01
2.997891409042e+01
3.006406376087e+01
3.000379379401e+01
3.006259615720e+01
3.000123153704e+01
3.006041122077e+01
3.000676696069e+01
3.006077484717e+01
3.000347322488e+01
2.695385748988e+01
3.000711624942e+01
3.000668939773e+01
2.999936794893e+01
3.001376893915e+01
3.054932496900e+01
3.056518457917e+01
3.058714611030e+01
3.053766531364e+01
2.999712104726e+01
3.011465326114e+01
3.045850028242e+01
3.047036776740e+01
3.010539040796e+01
2.999319303877e+01
2.997887471416e+01
2.997630599941e+01
3.000064072358e+01
2.999794901529e+01
3.011281570950e+01
3.045921125736e+01
2.997849340160e+01
2.997733138948e+01
2.999999236649e+01
2.999985325781e+01
3.012002669503e+01
3.044598703606e+01
2.997925460410e+01
2.997780730003e+01
2.999986910380e+01
2.999959297490e+01
2.997723442473e+01
2.997983106543e+01
3.006105160554e+01
3.000353450693e+01
3.005963571079e+01
3.000107152424e+01
3.005753167666e+01
3.000640201963e+01
3.005788490803e+01
3.000324303329e+01
2.709529286508e+01
3.000707823610e+01
3.000665165323e+01
2.999936695350e+01
3.001370422190e+01
3.053917687488e+01
3.055535039492e+01
3.057777604318e+01
3.052708785266e+01
2.999711426326e+01
3.011337303278e+01
3.045508895268e+01
3.046695599138e+01
3.010416235827e+01
2.999322536527e+01
2.997916026480e+01
2.997648471686e+01
3.000069906352e+01
2.999793187829e+01
3.011153706312e+01
3.045576508667e+01
2.997877073964e+01
2.997751062775e+01
3.000005591523e+01
2.999982027439e+01
3.011869976558e+01
3.044245784671e+01
2.997952533469e+01
2.997798412927e+01
2.999991561385e+01
2.999964875088e+01
2.997740691019e+01
2.998010764468e+01
3.005995796133e+01
3.000335990882e+01
3.005856072596e+01
3.000091824618e+01
3.005649426432e+01
3.000620527797e+01
3.005683797022e+01
3.000308439211e+01
2.716862310823e+01
3.000747307210e+01
3.000700855467e+01
2.999932196091e+01
3.001449306176e+01
3.048837365250e+01
3.050744420665e+01
3.053250694218e+01
3.047602940853e+01
2.999674762572e+01
3.011679256021e+01
3.046248309465e+01
3.047491837485e+01
3.010751149251e+01
2.999256266632e+01
2.997825830929e+01
2.997542019189e+01
3.000087063052e+01
2.999761090108e+01
3.011488349113e+01
3.046358020394e+01
2.997785467848e+01
2.997651052487e+01
3.000019838954e+01
2.999979635782e+01
3.012196064934e+01
3.044949457439e+01
2.997866708080e+01
2.997704722319e+01
2.999999865388e+01
2.999973491372e+01
2.997640933869e+01
2.997927173104e+01
3.006264201688e+01
3.000306845492e+01
3.006112789516e+01
3.000057337767e+01
3.005890772317e+01
3.000605105088e+01
3.005935824314e+01
3.000282061117e+01
2.717620555461e+01
3.000756219337e+01
3.000708949523e+01
2.999930951980e+01
3.001467294881e+01
3.047396515297e+01
3.049378791341e+01
3.051978581518e+01
3.046111797321e+01
2.999666531436e+01
3.011763012252e+01
3.046432476440e+01
3.047693529020e+01
3.010832826778e+01
2.999241143363e+01
2.997804575609e+01
2.997517681947e+01
3.000091121980e+01
2.999753882662e+01
3.011570145684e+01
3.046552063306e+01
2.997763873399e+01
2.997628160019e+01
3.000023156296e+01
2.999979349942e+01
3.012276227032e+01
3.045118263001e+01
2.997846285008e+01
2.997683196395e+01
3.000001854322e+01
2.999975553415e+01
2.997618057271e+01
2.997907307182e+01
3.006329679879e+01
3.000301136308e+01
3.006175799509e+01
3.000050394277e+01
3.005950803860e+01
3.000602631502e+01
3.005998036143e+01
3.000276944323e+01
2.714908526762e+01
3.000774111490e+01
3.000724996201e+01
2.999928678434e+01
3.001503344869e+01
3.044564817197e+01
3.046694057848e+01
3.049406132066e+01
3.043306234483e+01
2.999648567739e+01
3.011911804889e+01
3.046652529406e+01
3.047936224650e+01
3.010982199366e+01
2.999208495445e+01
2.997761855305e+01
2.997470078514e+01
3.000099146789e+01
2.999738220674e+01
3.011715850692e+01
3.046795147269e+01
2.997720843375e+01
2.997583519240e+01
3.000029748978e+01
2.999978968723e+01
3.012413962139e+01
3.045329677604e+01
2.997806126530e+01
2.997641784830e+01
3.000005567924e+01
2.999979464123e+01
2.997573707902e+01
2.997867885233e+01
3.006464160665e+01
3.000287270802e+01
3.006304154674e+01
3.000034695522e+01
3.006071062590e+01
3.000595358550e+01
3.006124254512e+01
3.000264631055e+01
2.712896596238e+01
3.000790845493e+01
3.000739700822e+01
2.999926342915e+01
3.001537454508e+01
3.040317939576e+01
3.042620347006e+01
3.045426279185e+01
3.039157048869e+01
2.999627709371e+01
3.012016033013e+01
3.046466365484e+01
3.047763264668e+01
3.011098331896e+01
2.999170733064e+01
2.997719086084e+01
2.997428857533e+01
3.000107145138e+01
2.999719924305e+01
3.011818331005e+01
3.046641689754e+01
2.997678570323e+01
2.997545047037e+01
3.000036386620e+01
2.999980177003e+01
3.012496899157e+01
3.045156468468e+01
2.997767174677e+01
2.997607325027e+01
3.000009028105e+01
2.999983210249e+01
2.997536066732e+01
2.997828873376e+01
3.006615761430e+01
3.000270544293e+01
3.006448145997e+01
3.000017959251e+01
3.006204737008e+01
3.000584975858e+01
3.006266401679e+01
3.000249899642e+01
2.710072977186e+01
3.000863375371e+01
3.000805898519e+01
2.999918728063e+01
3.001680806557e+01
3.035767659803e+01
3.038476274597e+01
3.041574208857e+01
3.034727138003e+01
2.999571366763e+01
3.012844373884e+01
3.048739529139e+01
3.050128358209e+01
3.011894867611e+01
2.999061326496e+01
2.997523646303e+01
2.997216003568e+01
3.000126878002e+01
2.999672939750e+01
3.012632633811e+01
3.048978335193e+01
2.997481486569e+01
2.997343369441e+01
3.000050006668e+01
2.999979734200e+01
3.013316909237e+01
3.047381413359e+01
2.997580655386e+01
2.997415865074e+01
3.000015517517e+01
2.999988843995e+01
2.997335190205e+01
2.997645868093e+01
3.007217321240e+01
3.000253303660e+01
3.007027757518e+01
2.999986655102e+01
3.006753577723e+01
3.000595627892e+01
3.006832781162e+01
3.000235102317e+01
2.704678322439e+01
3.000496293549e+01
3.000465096057e+01
2.999951785561e+01
3.000966052487e+01
3.039274353219e+01
3.040448256024e+01
3.042062738119e+01
3.038417811229e+01
2.999792937379e+01
3.007696876441e+01
3.032140017577e+01
3.032985906981e+01
3.007033350698e+01
2.999533947028e+01
2.998627858585e+01
2.998371790868e+01
3.000083142839e+01
2.999848097990e+01
3.007560596881e+01
3.032161662805e+01
2.998595075639e+01
2.998447550533e+01
3.000038333180e+01
2.999969057202e+01
3.008077179445e+01
3.031192338452e+01
2.998647236323e+01
2.998480469456e+01
3.000020121713e+01
3.000005446785e+01
2.998436238831e+01
2.998693112411e+01
3.003795977917e+01
3.000164919489e+01
3.003702994348e+01
2.999995614884e+01
3.003569078491e+01
3.000362899603e+01
3.003588011912e+01
3.000153054009e+01
2.740237756110e+01
3.000235349237e+01
3.000223749585e+01
2.999981165972e+01
3.000451821403e+01
3.023279270439e+01
3.023672818365e+01
3.024816887258e+01
3.021940491762e+01
2.999926871445e+01
3.003999676575e+01
3.017105622462e+01
3.017586125695e+01
3.003633785759e+01
2.999811936753e+01
2.999305035716e+01
2.999198682639e+01
3.000013008938e+01
2.999951057716e+01
3.003933766368e+01
3.017074140305e+01
2.999288119601e+01
2.999231315524e+01
2.999992248380e+01
2.999989763400e+01
3.004235610391e+01
3.016514686798e+01
2.999308294632e+01
2.999240841382e+01
2.999992399090e+01
2.999981830779e+01
2.999225519079e+01
2.999331303288e+01
3.001938815508e+01
3.000147662446e+01
3.001905257673e+01
3.000056519687e+01
3.001855854490e+01
3.000239025443e+01
3.001849128457e+01
3.000132257685e+01
3.091307686805e+01
3.000068499930e+01
3.000065022994e+01
2.999994653635e+01
3.000131262675e+01
3.009004150793e+01
3.009099599510e+01
3.009116986192e+01
3.009135945354e+01
2.999981894873e+01
3.001280385805e+01
3.005133982156e+01
3.005229995125e+01
3.001179539666e+01
2.999943668748e+01
2.999767534594e+01
2.999757374229e+01
2.999995038367e+01
2.999990532862e+01
3.001264293991e+01
3.005126538453e+01
2.999764837408e+01
2.999766708663e+01
2.999988309764e+01
3.000003417252e+01
3.001348222047e+01
3.005032977091e+01
2.999772371516e+01
2.999770143913e+01
2.999990457538e+01
2.999986425761e+01
2.999766111652e+01
2.999777131452e+01
3.000702643306e+01
3.000068468577e+01
3.000688056768e+01
3.000040908839e+01
3.000664790805e+01
3.000098449564e+01
3.000667176031e+01
3.000063145168e+01
2.995638163118e+01
3.000006218907e+01
3.000006281939e+01
2.999999491313e+01
3.000011475040e+01
3.000544031806e+01
3.000550024151e+01
3.000630829685e+01
3.000412805268e+01
3.000000670937e+01
3.000178019748e+01
3.000612307430e+01
3.000633718938e+01
3.000165749055e+01
2.999996075232e+01
2.999966081227e+01
2.999973786450e+01
2.999995478011e+01
3.000001548515e+01
3.000176471006e+01
3.000612373762e+01
2.999966216813e+01
2.999974084034e+01
2.999994713646e+01
3.000002940953e+01
3.000187417137e+01
3.000587398341e+01
2.999966465799e+01
2.999973951971e+01
2.999996303969e+01
2.999995334186e+01
2.999974324143e+01
2.999966608343e+01
3.000121405575e+01
3.000019392763e+01
3.000120570618e+01
3.000015900692e+01
3.000119115400e+01
3.000022354202e+01
3.000118369556e+01
3.000017461062e+01
3.003648007655e+01
2.999999002512e+01
2.999999033791e+01
2.999999972791e+01
2.999998179200e+01
2.999921444385e+01
2.999920924814e+01
2.999910429361e+01
2.999938865038e+01
3.000000323425e+01
2.999985641932e+01
2.999931129969e+01
2.999928344457e+01
2.999987322901e+01
3.000000664629e+01
3.000002494187e+01
3.000003323201e+01
3.000000070742e+01
3.000000268232e+01
2.999985917558e+01
2.999931460072e+01
3.000002606920e+01
3.000003217121e+01
3.000000124209e+01
3.000000208851e+01
2.999984472768e+01
2.999934945478e+01
3.000002569716e+01
3.000003214691e+01
3.000000116385e+01
3.000000166749e+01
3.000003252474e+01
3.000002442884e+01
2.999994576424e+01
2.999999767574e+01
2.999994577933e+01
3.000000158859e+01
2.999994578891e+01
2.999999507644e+01
2.999994736707e+01
2.999999864860e+01
2.999611468757e+01
3.000000236263e+01
3.000000228933e+01
3.000000009148e+01
3.000000429587e+01
3.000017862309e+01
3.000017949858e+01
3.000020692073e+01
3.000013232328e+01
2.999999919530e+01
3.000003161626e+01
3.000016087855e+01
3.000016783570e+01
3.000002754137e+01
2.999999849962e+01
2.999999468162e+01
2.999999228177e+01
2.999999994060e+01
2.999999929707e+01
3.000003093661e+01
3.000015995286e+01
2.999999437537e+01
2.999999253574e+01
2.999999983145e+01
2.999999936348e+01