# vtk DataFile Version 3.0
Unstructured Grid from OpenGeoSys
ASCII
DATASET UNSTRUCTURED_GRID
FIELD TimesAndCycles 2
TIME 1 1 double
3.600000000000e+03
CYLCE 1 1 long
1
POINTS 1394 double
0.000000000000e+00 0.000000000000e+00 0.000000000000e+00
5.000000000000e+00 0.000000000000e+00 0.000000000000e+00
5.000000000000e+00 5.000000000000e+00 0.000000000000e+00
0.000000000000e+00 5.000000000000e+00 0.000000000000e+00
2.244234909000e+00 2.244234909000e+00 0.000000000000e+00
2.755765091000e+00 2.244234909000e+00 0.000000000000e+00
2.755765091000e+00 2.755765091000e+00 0.000000000000e+00
2.244234909000e+00 2.755765091000e+00 0.000000000000e+00
7.141316008320e-01 7.141316008320e-01 0.000000000000e+00
1.314642334730e+00 1.314642334730e+00 0.000000000000e+00
1.819609643610e+00 1.819609643610e+00 0.000000000000e+00
1.819609643610e+00 3.180390356390e+00 0.000000000000e+00
1.314642334740e+00 3.685357665260e+00 0.000000000000e+00
7.141316008360e-01 4.285868399160e+00 0.000000000000e+00
0.000000000000e+00 3.750000000000e+00 0.000000000000e+00
0.000000000000e+00 2.500000000000e+00 0.000000000000e+00
0.000000000000e+00 1.250000000000e+00 0.000000000000e+00
4.285868399170e+00 7.141316008320e-01 0.000000000000e+00
3.685357665270e+00 1.314642334730e+00 0.000000000000e+00
3.180390356390e+00 1.819609643610e+00 0.000000000000e+00
1.250000000000e+00 0.000000000000e+00 0.000000000000e+00
2.500000000000e+00 0.000000000000e+00 0.000000000000e+00
3.750000000000e+00 0.000000000000e+00 0.000000000000e+00
4.285868399170e+00 4.285868399170e+00 0.000000000000e+00
3.685357665270e+00 3.685357665270e+00 0.000000000000e+00
3.180390356390e+00 3.180390356390e+00 0.000000000000e+00
5.000000000000e+00 1.250000000000e+00 0.000000000000e+00
5.000000000000e+00 2.500000000000e+00 0.000000000000e+00
5.000000000000e+00 3.750000000000e+00 0.000000000000e+00
3.750000000000e+00 5.000000000000e+00 0.000000000000e+00
2.500000000000e+00 5.000000000000e+00 0.000000000000e+00
1.250000000000e+00 5.000000000000e+00 0.000000000000e+00
9.560744151940e-01 2.677827143250e+00 0.000000000000e+00
6.659597640160e-01 1.438876720610e+00 0.000000000000e+00
2.309219871940e+00 9.522638293400e-01 0.000000000000e+00
3.458157207860e+00 6.354750772000e-01 0.000000000000e+00
4.043925584810e+00 2.322172856750e+00 0.000000000000e+00
4.334040235980e+00 3.561123279390e+00 0.000000000000e+00
2.318530875810e+00 4.048536535600e+00 0.000000000000e+00
3.552396921680e+00 4.370927842320e+00 0.000000000000e+00
2.500000000000e+00 2.500000000000e+00 0.000000000000e+00
0.000000000000e+00 0.000000000000e+00 -5.000000000000e-01
5.000000000000e+00 0.000000000000e+00 -5.000000000000e-01
5.000000000000e+00 5.000000000000e+00 -5.000000000000e-01
0.000000000000e+00 5.000000000000e+00 -5.000000000000e-01
2.244234909000e+00 2.244234909000e+00 -5.000000000000e-01
2.755765091000e+00 2.244234909000e+00 -5.000000000000e-01
2.755765091000e+00 2.755765091000e+00 -5.000000000000e-01
2.244234909000e+00 2.755765091000e+00 -5.000000000000e-01
7.141316008320e-01 7.141316008320e-01 -5.000000000000e-01
1.314642334730e+00 1.314642334730e+00 -5.000000000000e-01
1.819609643610e+00 1.819609643610e+00 -5.000000000000e-01
1.819609643610e+00 3.180390356390e+00 -5.000000000000e-01
1.314642334740e+00 3.685357665260e+00 -5.000000000000e-01
7.141316008360e-01 4.285868399160e+00 -5.000000000000e-01
0.000000000000e+00 3.750000000000e+00 -5.000000000000e-01
0.000000000000e+00 2.500000000000e+00 -5.000000000000e-01
0.000000000000e+00 1.250000000000e+00 -5.000000000000e-01
4.285868399170e+00 7.141316008320e-01 -5.000000000000e-01
3.685357665270e+00 1.314642334730e+00 -5.000000000000e-01
3.180390356390e+00 1.819609643610e+00 -5.000000000000e-01
1.250000000000e+00 0.000000000000e+00 -5.000000000000e-01
2.500000000000e+00 0.000000000000e+00 -5.000000000000e-01
3.750000000000e+00 0.000000000000e+00 -5.000000000000e-01
4.285868399170e+00 4.285868399170e+00 -5.000000000000e-01
3.685357665270e+00 3.685357665270e+00 -5.000000000000e-01
3.180390356390e+00 3.180390356390e+00 -5.000000000000e-01
5.000000000000e+00 1.250000000000e+00 -5.000000000000e-01
5.000000000000e+00 2.500000000000e+00 -5.000000000000e-01
5.000000000000e+00 3.750000000000e+00 -5.000000000000e-01
3.750000000000e+00 5.000000000000e+00 -5.000000000000e-01
2.500000000000e+00 5.000000000000e+00 -5.000000000000e-01
1.250000000000e+00 5.000000000000e+00 -5.000000000000e-01
9.560744151940e-01 2.677827143250e+00 -5.000000000000e-01
6.659597640160e-01 1.438876720610e+00 -5.000000000000e-01
2.309219871940e+00 9.522638293400e-01 -5.000000000000e-01
3.458157207860e+00 6.354750772000e-01 -5.000000000000e-01
4.043925584810e+00 2.322172856750e+00 -5.000000000000e-01
4.334040235980e+00 3.561123279390e+00 -5.000000000000e-01
2.318530875810e+00 4.048536535600e+00 -5.000000000000e-01
3.552396921680e+00 4.370927842320e+00 -5.000000000000e-01
2.500000000000e+00 2.500000000000e+00 -5.000000000000e-01
0.000000000000e+00 0.000000000000e+00 -1.000000000000e+00
5.000000000000e+00 0.000000000000e+00 -1.000000000000e+00
5.000000000000e+00 5.000000000000e+00 -1.000000000000e+00
0.000000000000e+00 5.000000000000e+00 -1.000000000000e+00
2.244234909000e+00 2.244234909000e+00 -1.000000000000e+00
2.755765091000e+00 2.244234909000e+00 -1.000000000000e+00
2.755765091000e+00 2.755765091000e+00 -1.000000000000e+00
2.244234909000e+00 2.755765091000e+00 -1.000000000000e+00
7.141316008320e-01 7.141316008320e-01 -1.000000000000e+00
1.314642334730e+00 1.314642334730e+00 -1.000000000000e+00
1.819609643610e+00 1.819609643610e+00 -1.000000000000e+00
1.819609643610e+00 3.180390356390e+00 -1.000000000000e+00
1.314642334740e+00 3.685357665260e+00 -1.000000000000e+00
7.141316008360e-01 4.285868399160e+00 -1.000000000000e+00
0.000000000000e+00 3.750000000000e+00 -1.000000000000e+00
0.000000000000e+00 2.500000000000e+00 -1.000000000000e+00
0.000000000000e+00 1.250000000000e+00 -1.000000000000e+00
4.285868399170e+00 7.141316008320e-01 -1.000000000000e+00
3.685357665270e+00 1.314642334730e+00 -1.000000000000e+00
3.180390356390e+00 1.819609643610e+00 -1.000000000000e+00
1.250000000000e+00 0.000000000000e+00 -1.000000000000e+00
2.500000000000e+00 0.000000000000e+00 -1.000000000000e+00
3.750000000000e+00 0.000000000000e+00 -1.000000000000e+00
4.285868399170e+00 4.285868399170e+00 -1.000000000000e+00
3.685357665270e+00 3.685357665270e+00 -1.000000000000e+00
3.180390356390e+00 3.180390356390e+00 -1.000000000000e+00
5.000000000000e+00 1.250000000000e+00 -1.000000000000e+00
5.000000000000e+00 2.500000000000e+00 -1.000000000000e+00
5.000000000000e+00 3.750000000000e+00 -1.000000000000e+00
3.750000000000e+00 5.000000000000e+00 -1.000000000000e+00
2.500000000000e+00 5.000000000000e+00 -1.000000000000e+00
1.250000000000e+00 5.000000000000e+00 -1.000000000000e+00
9.560744151940e-01 2.677827143250e+00 -1.000000000000e+00
6.659597640160e-01 1.438876720610e+00 -1.000000000000e+00
2.309219871940e+00 9.522638293400e-01 -1.000000000000e+00
3.458157207860e+00 6.354750772000e-01 -1.000000000000e+00
4.043925584810e+00 2.322172856750e+00 -1.000000000000e+00
4.334040235980e+00 3.561123279390e+00 -1.000000000000e+00
2.318530875810e+00 4.048536535600e+00 -1.000000000000e+00
3.552396921680e+00 4.370927842320e+00 -1.000000000000e+00
2.500000000000e+00 2.500000000000e+00 -1.000000000000e+00
0.000000000000e+00 0.000000000000e+00 -3.000000000000e+00
5.000000000000e+00 0.000000000000e+00 -3.000000000000e+00
5.000000000000e+00 5.000000000000e+00 -3.000000000000e+00
0.000000000000e+00 5.000000000000e+00 -3.000000000000e+00
2.244234909000e+00 2.244234909000e+00 -3.000000000000e+00
2.755765091000e+00 2.244234909000e+00 -3.000000000000e+00
2.755765091000e+00 2.755765091000e+00 -3.000000000000e+00
2.244234909000e+00 2.755765091000e+00 -3.000000000000e+00
7.141316008320e-01 7.141316008320e-01 -3.000000000000e+00
1.314642334730e+00 1.314642334730e+00 -3.000000000000e+00
1.819609643610e+00 1.819609643610e+00 -3.000000000000e+00
1.819609643610e+00 3.180390356390e+00 -3.000000000000e+00
1.314642334740e+00 3.685357665260e+00 -3.000000000000e+00
7.141316008360e-01 4.285868399160e+00 -3.000000000000e+00
0.000000000000e+00 3.750000000000e+00 -3.000000000000e+00
0.000000000000e+00 2.500000000000e+00 -3.000000000000e+00
0.000000000000e+00 1.250000000000e+00 -3.000000000000e+00
4.285868399170e+00 7.141316008320e-01 -3.000000000000e+00
3.685357665270e+00 1.314642334730e+00 -3.000000000000e+00
3.180390356390e+00 1.819609643610e+00 -3.000000000000e+00
1.250000000000e+00 0.000000000000e+00 -3.000000000000e+00
2.500000000000e+00 0.000000000000e+00 -3.000000000000e+00
3.750000000000e+00 0.000000000000e+00 -3.000000000000e+00
4.285868399170e+00 4.285868399170e+00 -3.000000000000e+00
3.685357665270e+00 3.685357665270e+00 -3.000000000000e+00
3.180390356390e+00 3.180390356390e+00 -3.000000000000e+00
5.000000000000e+00 1.250000000000e+00 -3.000000000000e+00
5.000000000000e+00 2.500000000000e+00 -3.000000000000e+00
5.000000000000e+00 3.750000000000e+00 -3.000000000000e+00
3.750000000000e+00 5.000000000000e+00 -3.000000000000e+00
2.500000000000e+00 5.000000000000e+00 -3.000000000000e+00
1.250000000000e+00 5.000000000000e+00 -3.000000000000e+00
9.560744151940e-01 2.677827143250e+00 -3.000000000000e+00
6.659597640160e-01 1.438876720610e+00 -3.000000000000e+00
2.309219871940e+00 9.522638293400e-01 -3.000000000000e+00
3.458157207860e+00 6.354750772000e-01 -3.000000000000e+00
4.043925584810e+00 2.322172856750e+00 -3.000000000000e+00
4.334040235980e+00 3.561123279390e+00 -3.000000000000e+00
2.318530875810e+00 4.048536535600e+00 -3.000000000000e+00
3.552396921680e+00 4.370927842320e+00 -3.000000000000e+00
2.500000000000e+00 2.500000000000e+00 -3.000000000000e+00
0.000000000000e+00 0.000000000000e+00 -5.000000000000e+00
5.000000000000e+00 0.000000000000e+00 -5.000000000000e+00
5.000000000000e+00 5.000000000000e+00 -5.000000000000e+00
0.000000000000e+00 5.000000000000e+00 -5.000000000000e+00
2.244234909000e+00 2.244234909000e+00 -5.000000000000e+00
[...]
POINT_DATA 1394
SCALARS TEMPERATURE1 double 1
LOOKUP_TABLE default
1.000000000000e+01
1.000000000000e+01
1.000000000000e+01
1.000000000000e+01
1.000000000000e+01
1.000000000000e+01
1.000000000000e+01
1.000000000000e+01
1.000000000000e+01
1.000000000000e+01
1.000000000000e+01
1.000000000000e+01
1.000000000000e+01
1.000000000000e+01
1.000000000000e+01
1.000000000000e+01
1.000000000000e+01
1.000000000000e+01
1.000000000000e+01
1.000000000000e+01
1.000000000000e+01
1.000000000000e+01
1.000000000000e+01
1.000000000000e+01
1.000000000000e+01
1.000000000000e+01
1.000000000000e+01
1.000000000000e+01
1.000000000000e+01
1.000000000000e+01
1.000000000000e+01
1.000000000000e+01
1.000000000000e+01
1.000000000000e+01
1.000000000000e+01
1.000000000000e+01
1.000000000000e+01
1.000000000000e+01
1.000000000000e+01
1.000000000000e+01
1.000000000000e+01
1.537349004515e+01
1.537365489913e+01
1.537441565309e+01
1.536928198398e+01
1.587437884375e+01
1.587013010148e+01
1.586669380263e+01
1.587467299883e+01
1.544226241467e+01
1.561360028595e+01
1.576833619640e+01
1.577143492106e+01
1.561004121895e+01
1.544185963928e+01
1.543031603066e+01
1.551310243060e+01
1.544602632197e+01
1.544221656030e+01
1.561400683349e+01
1.577066999726e+01
1.543183996764e+01
1.551329391322e+01
1.544447351399e+01
1.543964498384e+01
1.561875854428e+01
1.577085349802e+01
1.543103004998e+01
1.551296245124e+01
1.544696079770e+01
1.544646477954e+01
1.551315931928e+01
1.543017700816e+01
1.564451590384e+01
1.550833632949e+01
1.564341803043e+01
1.551122046588e+01
1.564327801743e+01
1.550990720432e+01
1.564230930905e+01
1.550542971177e+01
1.695758930961e+01
2.073915679678e+01
2.073799473444e+01
2.073811097903e+01
2.073648184465e+01
1.983456780931e+01
1.986938306780e+01
1.992277702409e+01
1.979287869269e+01
2.082273423765e+01
2.088985672527e+01
2.079240891361e+01
2.079720302503e+01
2.089180384363e+01
2.082453523332e+01
2.084524675770e+01
2.093839716144e+01
2.084392162976e+01
2.082168214003e+01
2.089019086208e+01
2.079577723064e+01
2.084531856240e+01
2.093896844643e+01
2.084254620583e+01
2.081922255769e+01
2.088902892515e+01
2.078620272705e+01
2.084415362018e+01
2.093921122986e+01
2.084243456155e+01
2.084252528970e+01
2.093813606038e+01
2.084494548289e+01
2.095724824535e+01
2.088550543990e+01
2.095721991321e+01
2.089247408365e+01
2.096009443669e+01
2.088591231358e+01
2.095879784673e+01
2.088463898923e+01
1.448799246356e+01
2.360153783325e+01
2.359969445354e+01
2.359671084532e+01
2.360328153962e+01
2.183821100554e+01
2.187536053523e+01
2.196554782068e+01
2.173486068293e+01
2.365341152048e+01
2.363467094789e+01
2.337626968357e+01
2.338475376056e+01
2.363933784935e+01
2.365418789084e+01
2.368640056989e+01
2.374592159085e+01
2.368005920479e+01
2.365222906976e+01
2.363489821578e+01
2.338316471070e+01
2.368529075153e+01
2.374666488901e+01
2.367960517404e+01
2.365312099557e+01
2.362954003539e+01
2.336808384743e+01
2.368472438143e+01
2.374762075483e+01
2.367767201983e+01
2.367786436960e+01
2.374594394058e+01
2.368642305552e+01
2.370284148998e+01
2.368718793420e+01
2.370323452314e+01
2.369351856440e+01
2.370595706479e+01
2.368647051271e+01
2.370543652746e+01
2.368756113604e+01
1.678055803261e+01
2.533057658076e+01
2.532882737945e+01
2.532530091157e+01
2.533299443347e+01
2.339457112519e+01
2.343709069127e+01
2.355442625623e+01
2.324923880147e+01
2.537364138583e+01
2.535461298334e+01
2.511360794358e+01
2.512594051779e+01
2.535861979229e+01
2.537389063179e+01
2.540281531948e+01
2.545388945991e+01
2.539789963142e+01
2.537248698030e+01
2.535485413055e+01
2.511998921037e+01
2.540160135008e+01
2.545450646257e+01
2.539760880692e+01
2.537387703430e+01
2.535001204553e+01
2.509889561357e+01
2.540102981869e+01
2.545536002095e+01
2.539573405983e+01
2.539577981651e+01
2.545383589357e+01
2.540276349935e+01
2.541570481584e+01
2.540224819389e+01
2.541639267722e+01
2.540776938796e+01
2.541932749480e+01
2.540147028210e+01
2.541860856502e+01
2.540251706310e+01
1.862041147276e+01
2.626032161872e+01
2.625865998029e+01
2.625400780785e+01
2.626344985467e+01
2.437097712701e+01
2.441651852072e+01
2.455757817886e+01
2.418748642399e+01
2.630375615480e+01
2.632137119300e+01
2.616599601415e+01
2.618360449316e+01
2.632291301292e+01
2.630320407167e+01
2.632612154171e+01
2.637997254448e+01
2.632687376567e+01
2.630272080075e+01
2.632133463860e+01
2.617228320545e+01
2.632496515152e+01
2.638064201187e+01
2.632642938551e+01
2.630430480344e+01
2.631873595698e+01
2.614462478490e+01
2.632436698877e+01
2.638141314861e+01
2.632494933650e+01
2.632481909491e+01
2.638000047469e+01
2.632608613994e+01
2.637199043693e+01
2.633707135513e+01
2.637261978199e+01
2.634191430403e+01
2.637548888427e+01
2.633677366986e+01
2.637448710476e+01
2.633683309225e+01
2.010263986029e+01
2.666155592759e+01
2.666002121899e+01
2.665450972033e+01
2.666516412227e+01
2.491652213926e+01
2.496406821704e+01
2.512769291600e+01
2.469481255582e+01
2.670555928260e+01
2.675694909752e+01
2.670296817856e+01
2.672572897482e+01
2.675557990121e+01
2.670457374478e+01
2.672172565709e+01
2.677736617141e+01
2.672700244788e+01
2.670458829862e+01
2.675662714458e+01
2.670806841388e+01
2.672057436984e+01
2.677806020039e+01
2.672642727209e+01
2.670589660127e+01
2.675685408255e+01
2.667369008225e+01
2.671988422555e+01
2.677865189153e+01
2.672534797991e+01
2.672505624071e+01
2.677739557746e+01
2.672162881657e+01
2.679388905651e+01
2.674285479987e+01
2.679463954089e+01
2.674696160127e+01
2.679772158113e+01
2.674296209025e+01
2.679622838513e+01
2.674213783914e+01
2.176747882638e+01
2.676098900522e+01
2.675938431561e+01
2.675546574150e+01
2.676414400229e+01
2.463400854676e+01
2.467822551667e+01
2.481031891765e+01
2.446434756536e+01
2.678967011117e+01
2.675454006951e+01
2.649630607653e+01
2.651044830082e+01
2.675886667266e+01
2.678930286939e+01
2.681614718239e+01
2.685224470062e+01
2.681149853331e+01
2.678864143328e+01
2.675476635747e+01
2.650305772185e+01
2.681487299006e+01
2.685277257697e+01
2.681149755727e+01
2.679096919212e+01
2.674924987038e+01
2.647914407422e+01
2.681446386660e+01
2.685362592703e+01
2.680946822351e+01
2.680947746823e+01
2.685219999512e+01
2.681610304500e+01
2.680956805046e+01
2.680762875660e+01
2.681040108134e+01
2.681220139893e+01
2.681311778114e+01
2.680663675658e+01
2.681257798863e+01
2.680803753425e+01
1.990619106436e+01
2.695146961454e+01
2.695004361847e+01
2.694530530969e+01
2.695504212162e+01
2.507517822741e+01
2.511911252180e+01
2.526510970806e+01
2.487981176542e+01
2.698044469266e+01
2.698664440349e+01
2.684342196148e+01
2.686187281711e+01
2.698788136676e+01
2.697947073180e+01
2.699869325749e+01
2.703678394658e+01
2.699980176422e+01
2.697956936146e+01
2.698657051967e+01
2.684912901929e+01
2.699753422995e+01
2.703733134363e+01
2.699961589781e+01
2.698165207723e+01
2.698408723709e+01
2.682019420436e+01
2.699708218696e+01
2.703800903357e+01
2.699813920203e+01
2.699796629117e+01
2.703679180805e+01
2.699864430778e+01
2.702657622514e+01
2.700315308357e+01
2.702734870439e+01
2.700681935709e+01
2.702995660739e+01
2.700273167903e+01
2.702905126922e+01
2.700300982506e+01
2.122010037762e+01
2.706444860030e+01
2.706313340745e+01
2.705833710273e+01
2.706823992829e+01
2.525897926211e+01
2.530075684461e+01
2.544543192019e+01
2.506267114653e+01
2.708702245564e+01
2.708981531221e+01
2.696141665457e+01
2.697999514807e+01
2.709067931496e+01
2.708589178301e+01
2.710326410751e+01
2.713418065443e+01
2.710467101804e+01
2.708623208690e+01
2.708968546291e+01
2.696672934636e+01
2.710210208328e+01
2.713469437170e+01
2.710458417892e+01
2.708845765020e+01
2.708749363949e+01
2.693776286929e+01
2.710172897260e+01
2.713533142084e+01
2.710312361926e+01
2.710294139346e+01
2.713419848465e+01
2.710322394117e+01
2.712343786890e+01
2.710504881878e+01
2.712424287833e+01
2.710813725080e+01
2.712668239970e+01
2.710461161238e+01
2.712582258276e+01
2.710494961530e+01
2.157430713055e+01
2.707006693482e+01
2.706886638207e+01
2.706430424672e+01
2.707390366363e+01
2.528914855092e+01
2.532854311189e+01
2.546860789257e+01
2.509731374765e+01
2.708472893072e+01
2.707167445050e+01
2.693218770554e+01
2.694982039333e+01
2.707286399136e+01
2.708362336112e+01
2.710071004094e+01
2.712210894665e+01
2.710072527621e+01
2.708399522151e+01
2.707156581275e+01
2.693710205673e+01
2.709952911177e+01
2.712256933599e+01
2.710082070395e+01
2.708636780953e+01
2.706897892909e+01
2.690924454970e+01
2.709924605095e+01
2.712317120854e+01
2.709923678187e+01
2.709909252059e+01
2.712209827887e+01
2.710065545404e+01
2.710124605944e+01
2.709560845560e+01
2.710215685073e+01
2.709822031830e+01
2.710448245743e+01
2.709497077703e+01
2.710372480030e+01
2.709569874044e+01
2.176165637278e+01
2.706409335079e+01
2.706298576009e+01
2.705871489438e+01
2.706789341393e+01
2.528938043125e+01
2.532669738825e+01
2.546204111705e+01
2.510269581725e+01
2.707221365606e+01
2.704333359435e+01
2.688706402715e+01
2.690361291232e+01
2.704500219205e+01
2.707118231812e+01
2.708843822721e+01
2.710183332674e+01
2.708689006572e+01
2.707151591455e+01
2.704327065950e+01
2.689168468826e+01
2.708724271856e+01
2.710223996847e+01
2.708714994316e+01
2.707400624757e+01
2.704016562231e+01
2.686509294216e+01
2.708703113993e+01
2.710281543376e+01
2.708544227600e+01
2.708533926926e+01
2.710178903249e+01
2.708836468971e+01
2.707059073157e+01
2.707688583951e+01
2.707160128892e+01
2.707915664376e+01
2.707384867379e+01
2.707603669407e+01
2.707319089617e+01
2.707715942993e+01
2.186605094399e+01
2.705190756682e+01
2.705087243068e+01
2.704689545370e+01
2.705562302033e+01
2.527470465127e+01
2.531032828936e+01
2.544136442054e+01
2.509302765576e+01
2.705499676858e+01
2.701222465093e+01
2.683834692175e+01
2.685385434276e+01
2.701439362273e+01
2.705405906895e+01
2.707168123137e+01
2.707882787982e+01
2.706866204662e+01
2.705432021268e+01
2.701221627527e+01
2.684275244779e+01
2.707047749233e+01
2.707918599371e+01
2.706905756248e+01
2.705689223811e+01
2.700859479208e+01
2.681737611035e+01
2.707031834304e+01
2.707974071670e+01
2.706724297690e+01
2.706717758349e+01
2.707874981769e+01
2.707158754641e+01
2.703834073941e+01
2.705470433888e+01
2.703943714434e+01
2.705674482570e+01
2.704163481009e+01
2.705366292447e+01
2.704106198298e+01
2.705513443349e+01
2.192429482188e+01
2.702670709515e+01
2.702572492660e+01
2.702206673061e+01
2.703027863594e+01
2.523504930101e+01
2.526928034138e+01
2.539609299889e+01
2.505870574654e+01
2.702609950668e+01
2.697040869573e+01
2.677596168119e+01
2.679037741628e+01
2.697315778763e+01
2.702528380277e+01
2.704356068985e+01
2.704598433744e+01
2.703904740410e+01
2.702542868441e+01
2.697047073115e+01
2.678024035686e+01
2.704235496476e+01
2.704629642524e+01
2.703955692446e+01
2.702805284468e+01
2.696627678630e+01
2.675614108051e+01
2.704223147877e+01
2.704683711736e+01
2.703764331724e+01
2.703761466320e+01
2.704587014780e+01
2.704344487683e+01
2.699673438201e+01
2.702186506404e+01
2.699790619291e+01
2.702378904638e+01
2.700008065802e+01
2.702063643640e+01
2.699958564097e+01
2.702243536999e+01
2.191477096047e+01
2.694796222997e+01
2.694701963632e+01
2.694382621223e+01
2.695127398445e+01
2.511089235099e+01
2.514393443011e+01
2.526476340868e+01
2.494328527878e+01
2.694394284473e+01
2.687072910733e+01
2.664133458562e+01
2.665408230848e+01
2.687446069387e+01
2.694333143112e+01
2.696310865128e+01
2.696093113885e+01
2.695639750404e+01
2.694325779279e+01
2.687091409087e+01
2.664558548969e+01
2.696190347273e+01
2.696118885949e+01
2.695704023201e+01
2.694593458441e+01
2.686576923360e+01
2.662341393190e+01
2.696181225636e+01
2.696172661511e+01
2.695497605513e+01
2.695500248692e+01
2.696076531065e+01
2.696296381068e+01
2.689942852800e+01
2.693546407203e+01
2.690068753180e+01
2.693739938952e+01
2.690286136844e+01
2.693397758645e+01
2.690247850500e+01
2.693622611340e+01
2.177061836397e+01
2.669731813872e+01
2.669639389616e+01
2.669413717952e+01
2.670014650330e+01
2.474430331902e+01
2.477463280443e+01
2.487837445512e+01
2.460336853401e+01
2.668681748472e+01
2.657319491089e+01
2.625592739391e+01
2.626435051867e+01
2.657938487523e+01
2.668665179001e+01
2.671084952265e+01
2.669973877022e+01
2.669908327487e+01
2.668610227680e+01
2.657363461198e+01
2.626051665664e+01
2.670963466022e+01
2.669992154171e+01
2.670000033581e+01
2.668896898225e+01
2.656604878035e+01
2.624356910577e+01
2.670964399535e+01
2.670051714485e+01
2.669751018124e+01
2.669768435455e+01
2.669949228054e+01
2.671068777362e+01
2.660926309114e+01
2.666948690072e+01
2.661063149226e+01
2.667164618498e+01
2.661271605607e+01
2.666745599454e+01
2.661267862556e+01
2.667074639010e+01
2.089708583815e+01
2.662641311450e+01
2.662550356083e+01
2.662350072158e+01
2.662912719063e+01
2.462132216649e+01
2.465145794205e+01
2.475203226871e+01
2.448563772866e+01
2.661348703177e+01
2.648757135459e+01
2.614423260632e+01
2.615161550968e+01
2.649448256289e+01
2.661342229429e+01
2.663880643341e+01
2.662454486791e+01
2.662558580326e+01
2.661276270119e+01
2.648809180567e+01
2.614889667034e+01
2.663758394893e+01
2.662470037199e+01
2.662659606893e+01
2.661572179704e+01
2.647977748902e+01
2.613308875424e+01
2.663762252717e+01
2.662530654477e+01
2.662397698799e+01
2.662419030654e+01
2.662426936329e+01
2.663863256058e+01
2.652554868986e+01
2.659319972887e+01
2.652696964884e+01
2.659538408310e+01
2.652904713620e+01
2.659099606783e+01
2.652910135624e+01
2.659460220972e+01
2.073375704631e+01
2.660271854274e+01
2.660182175099e+01
2.660019933198e+01
2.660533652226e+01
2.450588520832e+01
2.453533879478e+01
2.462940316646e+01
2.438087588743e+01
2.658488871870e+01
2.643695924850e+01
2.604674801187e+01
2.605222149618e+01
2.644516971133e+01
2.658495263132e+01
2.661241559715e+01
2.659202121648e+01
2.659676072493e+01
2.658416341825e+01
2.643759820439e+01
2.605169283121e+01
2.661116813784e+01
2.659213416957e+01
2.659793536234e+01
2.658737372967e+01
2.642794276856e+01
2.603809870916e+01
2.661128186932e+01
2.659278386143e+01
2.659507427694e+01
2.659536132547e+01
2.659171748925e+01
2.661224398645e+01
2.647807818661e+01
2.655897069392e+01
2.647955216227e+01
2.656116809959e+01
2.648154856537e+01
2.655648442317e+01
2.648181713662e+01
2.656065292990e+01
2.034551648194e+01
2.675470148505e+01
2.675380816118e+01
2.675284389762e+01
2.675732502138e+01
2.446885509152e+01
2.449702172821e+01
2.458254175009e+01
2.435704388405e+01
2.672584801384e+01
2.653164570444e+01
2.605317160568e+01
2.605553884478e+01
2.654220844248e+01
2.672624080414e+01
2.675804428901e+01
2.672380918298e+01
2.673722183931e+01
2.672508385947e+01
2.653249758044e+01
2.605835463628e+01
2.675664161322e+01
2.672381413240e+01
2.673875623560e+01
2.672879089261e+01
2.652042233358e+01
2.604809456619e+01
2.675689160129e+01
2.672454334620e+01
2.673538608943e+01
2.673581381898e+01
2.672343673223e+01
2.675785680436e+01
2.657711917164e+01
2.668752477986e+01
2.657879431921e+01
2.668964215234e+01
2.658077510732e+01
2.668442506817e+01
2.658139274537e+01
2.668979974890e+01
1.996514691644e+01
2.723075762093e+01
2.722984427702e+01
2.722954264771e+01
2.723350596967e+01
2.460078318662e+01
2.462982434232e+01
2.470443510794e+01
2.451024524094e+01
2.718951725266e+01
2.694633844592e+01
2.634276434115e+01
2.634120249271e+01
2.696043269555e+01
2.718985935106e+01
2.722609616984e+01
2.717774052837e+01
2.720074578399e+01
2.718878347435e+01
2.694746932041e+01
2.634963092725e+01
2.722461527266e+01
2.717762536740e+01
2.720262640837e+01
2.719366610453e+01
2.693170592801e+01
2.634402633391e+01
2.722509578477e+01
2.717857018381e+01
2.719873627958e+01
2.719932830285e+01
2.717740021395e+01
2.722598911093e+01
2.700194071726e+01
2.713828289060e+01
2.700354849755e+01
2.714040229239e+01
2.700511549410e+01
2.713461499863e+01
2.700646823345e+01
2.714122004471e+01
1.910002462048e+01
2.801296716018e+01
2.801259882543e+01
2.801161230610e+01
2.801487380783e+01
2.606503002560e+01
2.609472041330e+01
2.620875367178e+01
2.590393909155e+01
2.799037307216e+01
2.787273101396e+01
2.757425518893e+01
2.758405373587e+01
2.787877903717e+01
2.799012730814e+01
2.800769744604e+01
2.798256925249e+01
2.799626031697e+01
2.798982854049e+01
2.787311675188e+01
2.757796891695e+01
2.800675270631e+01
2.798244787927e+01
2.799731146218e+01
2.799284030418e+01
2.786585304875e+01
2.755874238004e+01
2.800672906072e+01
2.798276194264e+01
2.799533526020e+01
2.799552463837e+01
2.798223431641e+01
2.800733764184e+01
2.789887997537e+01
2.796452117654e+01
2.790041140836e+01
2.796534023458e+01
2.790244715374e+01
2.796236116462e+01
2.790239990025e+01
2.796565108730e+01
2.220520829335e+01
2.822913916751e+01
2.822871455161e+01
2.822797207176e+01
2.823059347191e+01
2.782543725798e+01
2.782662639941e+01
2.780668021028e+01
2.786261898912e+01
2.821509543873e+01
2.814321533081e+01
2.797893834479e+01
2.797318881406e+01
2.814730350402e+01
2.821491478492e+01
2.822602191061e+01
2.821002415631e+01
2.821917929201e+01
2.821503344232e+01
2.814365801796e+01
2.798077997489e+01
2.822561388910e+01
2.821019012974e+01
2.821977548534e+01
2.821642159434e+01
2.813891759747e+01
2.798759568428e+01
2.822604327125e+01
2.821061610926e+01
2.821835966524e+01
2.821851768957e+01
2.821005501350e+01
2.822626885358e+01
2.815665011232e+01
2.819863164068e+01
2.815672977650e+01
2.819921933907e+01
2.815627891702e+01
2.819779281415e+01
2.815707904432e+01
2.819968954726e+01
2.833215294891e+01
2.844363700961e+01
2.844346042664e+01
2.844312486170e+01
2.844414991177e+01
2.835728754283e+01
2.835394356638e+01
2.835078961843e+01
2.835774594602e+01
2.843779284364e+01
2.840179007109e+01
2.834804314143e+01
2.834650452444e+01
2.840270938819e+01
2.843812332771e+01
2.844386936721e+01
2.843593206397e+01
2.843943738947e+01
2.843767516828e+01
2.840195348400e+01
2.834770020330e+01
2.844359614229e+01
2.843600650829e+01
2.843979075268e+01
2.843768459711e+01
2.840076936322e+01
2.834912228484e+01
2.844369185908e+01
2.843606555388e+01
2.843907927251e+01
2.843911973182e+01
2.843581266934e+01
2.844385945330e+01
2.840380978151e+01
2.842972789343e+01
2.840421502669e+01
2.842997882923e+01
2.840448548313e+01
2.842914329937e+01
2.840443267425e+01
2.843014785212e+01
2.827554396305e+01
2.865246882134e+01
2.865237385074e+01
2.865197420031e+01
2.865277837822e+01
2.860765212470e+01
2.860778350828e+01
2.860793027357e+01
2.860733833626e+01
2.865097129307e+01
2.863876819525e+01
2.862160173566e+01
2.862123996708e+01
2.863896303634e+01
2.865099399027e+01
2.865357699611e+01
2.865152683694e+01
2.865213856862e+01
2.865093249197e+01
2.863882847776e+01
2.862145723771e+01
2.865349007385e+01
2.865162911012e+01
2.865228297899e+01
2.865089349976e+01
2.863841083402e+01
2.862154071506e+01
2.865353688938e+01
2.865164812740e+01
2.865190773731e+01
2.865190774439e+01
2.865146752110e+01
2.865358372990e+01
2.863945628507e+01
2.864854651640e+01
2.863964009723e+01
2.864873413296e+01
2.863975503005e+01
2.864834573350e+01
2.863968064661e+01
2.864868681787e+01
2.861536866620e+01
2.885069817896e+01
2.885066456181e+01
2.885041067419e+01
2.885073378943e+01
2.884726527516e+01
2.884716904676e+01
2.884691018702e+01
2.884754363189e+01
2.885169075031e+01
2.885076708715e+01
2.884808380800e+01
2.884798716258e+01
2.885069766455e+01
2.885163489092e+01
2.885252493598e+01
2.885367217450e+01
2.885237346775e+01
2.885168844411e+01
2.885080048409e+01
2.884809732754e+01
2.885255806458e+01
2.885375774923e+01
2.885241492544e+01
2.885157604696e+01
2.885072675811e+01
2.884813610252e+01
2.885256908028e+01
2.885374782235e+01
2.885226214200e+01
2.885224128811e+01
2.885363617659e+01
2.885252733548e+01
2.885161927775e+01
2.885224314627e+01
2.885169165307e+01
2.885241430618e+01
2.885171566900e+01
2.885219158035e+01
2.885163661557e+01
2.885221681041e+01
2.884639291081e+01
2.948830010483e+01
2.948832142874e+01
2.948829684181e+01
2.948821856441e+01
2.949118879992e+01
2.949122247561e+01
2.949129138164e+01
2.949109596267e+01
2.948861579938e+01
2.948961785486e+01
2.949086114199e+01
2.949087618283e+01
2.948956432090e+01
2.948857499941e+01
2.948845812572e+01
2.948884567328e+01
2.948858299398e+01
2.948862978113e+01
2.948962423988e+01
2.949086991254e+01
2.948850955463e+01
2.948887260370e+01
2.948859064015e+01
2.948857536300e+01