# vtk DataFile Version 3.0
Unstructured Grid from OpenGeoSys
ASCII
DATASET UNSTRUCTURED_GRID
FIELD TimesAndCycles 2
TIME 1 1 double
3.600000000000e+03
CYLCE 1 1 long
1
POINTS 1394 double
0.000000000000e+00 0.000000000000e+00 0.000000000000e+00
5.000000000000e+00 0.000000000000e+00 0.000000000000e+00
5.000000000000e+00 5.000000000000e+00 0.000000000000e+00
0.000000000000e+00 5.000000000000e+00 0.000000000000e+00
2.244234909000e+00 2.244234909000e+00 0.000000000000e+00
2.755765091000e+00 2.244234909000e+00 0.000000000000e+00
2.755765091000e+00 2.755765091000e+00 0.000000000000e+00
2.244234909000e+00 2.755765091000e+00 0.000000000000e+00
7.141316008320e-01 7.141316008320e-01 0.000000000000e+00
1.314642334730e+00 1.314642334730e+00 0.000000000000e+00
1.819609643610e+00 1.819609643610e+00 0.000000000000e+00
1.819609643610e+00 3.180390356390e+00 0.000000000000e+00
1.314642334740e+00 3.685357665260e+00 0.000000000000e+00
7.141316008360e-01 4.285868399160e+00 0.000000000000e+00
0.000000000000e+00 3.750000000000e+00 0.000000000000e+00
0.000000000000e+00 2.500000000000e+00 0.000000000000e+00
0.000000000000e+00 1.250000000000e+00 0.000000000000e+00
4.285868399170e+00 7.141316008320e-01 0.000000000000e+00
3.685357665270e+00 1.314642334730e+00 0.000000000000e+00
3.180390356390e+00 1.819609643610e+00 0.000000000000e+00
1.250000000000e+00 0.000000000000e+00 0.000000000000e+00
2.500000000000e+00 0.000000000000e+00 0.000000000000e+00
3.750000000000e+00 0.000000000000e+00 0.000000000000e+00
4.285868399170e+00 4.285868399170e+00 0.000000000000e+00
3.685357665270e+00 3.685357665270e+00 0.000000000000e+00
3.180390356390e+00 3.180390356390e+00 0.000000000000e+00
5.000000000000e+00 1.250000000000e+00 0.000000000000e+00
5.000000000000e+00 2.500000000000e+00 0.000000000000e+00
5.000000000000e+00 3.750000000000e+00 0.000000000000e+00
3.750000000000e+00 5.000000000000e+00 0.000000000000e+00
2.500000000000e+00 5.000000000000e+00 0.000000000000e+00
1.250000000000e+00 5.000000000000e+00 0.000000000000e+00
9.560744151940e-01 2.677827143250e+00 0.000000000000e+00
6.659597640160e-01 1.438876720610e+00 0.000000000000e+00
2.309219871940e+00 9.522638293400e-01 0.000000000000e+00
3.458157207860e+00 6.354750772000e-01 0.000000000000e+00
4.043925584810e+00 2.322172856750e+00 0.000000000000e+00
4.334040235980e+00 3.561123279390e+00 0.000000000000e+00
2.318530875810e+00 4.048536535600e+00 0.000000000000e+00
3.552396921680e+00 4.370927842320e+00 0.000000000000e+00
2.500000000000e+00 2.500000000000e+00 0.000000000000e+00
0.000000000000e+00 0.000000000000e+00 -5.000000000000e-01
5.000000000000e+00 0.000000000000e+00 -5.000000000000e-01
5.000000000000e+00 5.000000000000e+00 -5.000000000000e-01
0.000000000000e+00 5.000000000000e+00 -5.000000000000e-01
2.244234909000e+00 2.244234909000e+00 -5.000000000000e-01
2.755765091000e+00 2.244234909000e+00 -5.000000000000e-01
2.755765091000e+00 2.755765091000e+00 -5.000000000000e-01
2.244234909000e+00 2.755765091000e+00 -5.000000000000e-01
7.141316008320e-01 7.141316008320e-01 -5.000000000000e-01
1.314642334730e+00 1.314642334730e+00 -5.000000000000e-01
1.819609643610e+00 1.819609643610e+00 -5.000000000000e-01
1.819609643610e+00 3.180390356390e+00 -5.000000000000e-01
1.314642334740e+00 3.685357665260e+00 -5.000000000000e-01
7.141316008360e-01 4.285868399160e+00 -5.000000000000e-01
0.000000000000e+00 3.750000000000e+00 -5.000000000000e-01
0.000000000000e+00 2.500000000000e+00 -5.000000000000e-01
0.000000000000e+00 1.250000000000e+00 -5.000000000000e-01
4.285868399170e+00 7.141316008320e-01 -5.000000000000e-01
3.685357665270e+00 1.314642334730e+00 -5.000000000000e-01
3.180390356390e+00 1.819609643610e+00 -5.000000000000e-01
1.250000000000e+00 0.000000000000e+00 -5.000000000000e-01
2.500000000000e+00 0.000000000000e+00 -5.000000000000e-01
3.750000000000e+00 0.000000000000e+00 -5.000000000000e-01
4.285868399170e+00 4.285868399170e+00 -5.000000000000e-01
3.685357665270e+00 3.685357665270e+00 -5.000000000000e-01
3.180390356390e+00 3.180390356390e+00 -5.000000000000e-01
5.000000000000e+00 1.250000000000e+00 -5.000000000000e-01
5.000000000000e+00 2.500000000000e+00 -5.000000000000e-01
5.000000000000e+00 3.750000000000e+00 -5.000000000000e-01
3.750000000000e+00 5.000000000000e+00 -5.000000000000e-01
2.500000000000e+00 5.000000000000e+00 -5.000000000000e-01
1.250000000000e+00 5.000000000000e+00 -5.000000000000e-01
9.560744151940e-01 2.677827143250e+00 -5.000000000000e-01
6.659597640160e-01 1.438876720610e+00 -5.000000000000e-01
2.309219871940e+00 9.522638293400e-01 -5.000000000000e-01
3.458157207860e+00 6.354750772000e-01 -5.000000000000e-01
4.043925584810e+00 2.322172856750e+00 -5.000000000000e-01
4.334040235980e+00 3.561123279390e+00 -5.000000000000e-01
2.318530875810e+00 4.048536535600e+00 -5.000000000000e-01
3.552396921680e+00 4.370927842320e+00 -5.000000000000e-01
2.500000000000e+00 2.500000000000e+00 -5.000000000000e-01
0.000000000000e+00 0.000000000000e+00 -1.000000000000e+00
5.000000000000e+00 0.000000000000e+00 -1.000000000000e+00
5.000000000000e+00 5.000000000000e+00 -1.000000000000e+00
0.000000000000e+00 5.000000000000e+00 -1.000000000000e+00
2.244234909000e+00 2.244234909000e+00 -1.000000000000e+00
2.755765091000e+00 2.244234909000e+00 -1.000000000000e+00
2.755765091000e+00 2.755765091000e+00 -1.000000000000e+00
2.244234909000e+00 2.755765091000e+00 -1.000000000000e+00
7.141316008320e-01 7.141316008320e-01 -1.000000000000e+00
1.314642334730e+00 1.314642334730e+00 -1.000000000000e+00
1.819609643610e+00 1.819609643610e+00 -1.000000000000e+00
1.819609643610e+00 3.180390356390e+00 -1.000000000000e+00
1.314642334740e+00 3.685357665260e+00 -1.000000000000e+00
7.141316008360e-01 4.285868399160e+00 -1.000000000000e+00
0.000000000000e+00 3.750000000000e+00 -1.000000000000e+00
0.000000000000e+00 2.500000000000e+00 -1.000000000000e+00
0.000000000000e+00 1.250000000000e+00 -1.000000000000e+00
4.285868399170e+00 7.141316008320e-01 -1.000000000000e+00
3.685357665270e+00 1.314642334730e+00 -1.000000000000e+00
3.180390356390e+00 1.819609643610e+00 -1.000000000000e+00
1.250000000000e+00 0.000000000000e+00 -1.000000000000e+00
2.500000000000e+00 0.000000000000e+00 -1.000000000000e+00
3.750000000000e+00 0.000000000000e+00 -1.000000000000e+00
4.285868399170e+00 4.285868399170e+00 -1.000000000000e+00
3.685357665270e+00 3.685357665270e+00 -1.000000000000e+00
3.180390356390e+00 3.180390356390e+00 -1.000000000000e+00
5.000000000000e+00 1.250000000000e+00 -1.000000000000e+00
5.000000000000e+00 2.500000000000e+00 -1.000000000000e+00
5.000000000000e+00 3.750000000000e+00 -1.000000000000e+00
3.750000000000e+00 5.000000000000e+00 -1.000000000000e+00
2.500000000000e+00 5.000000000000e+00 -1.000000000000e+00
1.250000000000e+00 5.000000000000e+00 -1.000000000000e+00
9.560744151940e-01 2.677827143250e+00 -1.000000000000e+00
6.659597640160e-01 1.438876720610e+00 -1.000000000000e+00
2.309219871940e+00 9.522638293400e-01 -1.000000000000e+00
3.458157207860e+00 6.354750772000e-01 -1.000000000000e+00
4.043925584810e+00 2.322172856750e+00 -1.000000000000e+00
4.334040235980e+00 3.561123279390e+00 -1.000000000000e+00
2.318530875810e+00 4.048536535600e+00 -1.000000000000e+00
3.552396921680e+00 4.370927842320e+00 -1.000000000000e+00
2.500000000000e+00 2.500000000000e+00 -1.000000000000e+00
0.000000000000e+00 0.000000000000e+00 -3.000000000000e+00
5.000000000000e+00 0.000000000000e+00 -3.000000000000e+00
5.000000000000e+00 5.000000000000e+00 -3.000000000000e+00
0.000000000000e+00 5.000000000000e+00 -3.000000000000e+00
2.244234909000e+00 2.244234909000e+00 -3.000000000000e+00
2.755765091000e+00 2.244234909000e+00 -3.000000000000e+00
2.755765091000e+00 2.755765091000e+00 -3.000000000000e+00
2.244234909000e+00 2.755765091000e+00 -3.000000000000e+00
7.141316008320e-01 7.141316008320e-01 -3.000000000000e+00
1.314642334730e+00 1.314642334730e+00 -3.000000000000e+00
1.819609643610e+00 1.819609643610e+00 -3.000000000000e+00
1.819609643610e+00 3.180390356390e+00 -3.000000000000e+00
1.314642334740e+00 3.685357665260e+00 -3.000000000000e+00
7.141316008360e-01 4.285868399160e+00 -3.000000000000e+00
0.000000000000e+00 3.750000000000e+00 -3.000000000000e+00
0.000000000000e+00 2.500000000000e+00 -3.000000000000e+00
0.000000000000e+00 1.250000000000e+00 -3.000000000000e+00
4.285868399170e+00 7.141316008320e-01 -3.000000000000e+00
3.685357665270e+00 1.314642334730e+00 -3.000000000000e+00
3.180390356390e+00 1.819609643610e+00 -3.000000000000e+00
1.250000000000e+00 0.000000000000e+00 -3.000000000000e+00
2.500000000000e+00 0.000000000000e+00 -3.000000000000e+00
3.750000000000e+00 0.000000000000e+00 -3.000000000000e+00
4.285868399170e+00 4.285868399170e+00 -3.000000000000e+00
3.685357665270e+00 3.685357665270e+00 -3.000000000000e+00
3.180390356390e+00 3.180390356390e+00 -3.000000000000e+00
5.000000000000e+00 1.250000000000e+00 -3.000000000000e+00
5.000000000000e+00 2.500000000000e+00 -3.000000000000e+00
5.000000000000e+00 3.750000000000e+00 -3.000000000000e+00
3.750000000000e+00 5.000000000000e+00 -3.000000000000e+00
2.500000000000e+00 5.000000000000e+00 -3.000000000000e+00
1.250000000000e+00 5.000000000000e+00 -3.000000000000e+00
9.560744151940e-01 2.677827143250e+00 -3.000000000000e+00
6.659597640160e-01 1.438876720610e+00 -3.000000000000e+00
2.309219871940e+00 9.522638293400e-01 -3.000000000000e+00
3.458157207860e+00 6.354750772000e-01 -3.000000000000e+00
4.043925584810e+00 2.322172856750e+00 -3.000000000000e+00
4.334040235980e+00 3.561123279390e+00 -3.000000000000e+00
2.318530875810e+00 4.048536535600e+00 -3.000000000000e+00
3.552396921680e+00 4.370927842320e+00 -3.000000000000e+00
2.500000000000e+00 2.500000000000e+00 -3.000000000000e+00
0.000000000000e+00 0.000000000000e+00 -5.000000000000e+00
5.000000000000e+00 0.000000000000e+00 -5.000000000000e+00
5.000000000000e+00 5.000000000000e+00 -5.000000000000e+00
0.000000000000e+00 5.000000000000e+00 -5.000000000000e+00
2.244234909000e+00 2.244234909000e+00 -5.000000000000e+00
[...]
POINT_DATA 1394
SCALARS TEMPERATURE1 double 1
LOOKUP_TABLE default
1.000000000000e+01
1.000000000000e+01
1.000000000000e+01
1.000000000000e+01
1.000000000000e+01
1.000000000000e+01
1.000000000000e+01
1.000000000000e+01
1.000000000000e+01
1.000000000000e+01
1.000000000000e+01
1.000000000000e+01
1.000000000000e+01
1.000000000000e+01
1.000000000000e+01
1.000000000000e+01
1.000000000000e+01
1.000000000000e+01
1.000000000000e+01
1.000000000000e+01
1.000000000000e+01
1.000000000000e+01
1.000000000000e+01
1.000000000000e+01
1.000000000000e+01
1.000000000000e+01
1.000000000000e+01
1.000000000000e+01
1.000000000000e+01
1.000000000000e+01
1.000000000000e+01
1.000000000000e+01
1.000000000000e+01
1.000000000000e+01
1.000000000000e+01
1.000000000000e+01
1.000000000000e+01
1.000000000000e+01
1.000000000000e+01
1.000000000000e+01
1.000000000000e+01
1.961480870540e+01
1.961404416978e+01
1.960839126105e+01
1.960833907049e+01
2.396237854479e+01
2.397661942552e+01
2.404352937717e+01
2.386836888835e+01
1.989274896151e+01
2.076618894296e+01
2.236033079052e+01
2.240212480878e+01
2.072525441191e+01
1.989273868561e+01
1.982967497925e+01
2.015629572062e+01
1.991114199219e+01
1.989231390733e+01
2.076275046902e+01
2.235154076818e+01
1.983242867701e+01
2.015785220550e+01
1.990304673601e+01
1.987724374285e+01
2.080859982747e+01
2.231043632966e+01
1.982860375449e+01
2.015622243381e+01
1.991363194753e+01
1.991154092613e+01
2.015715909110e+01
1.982950241812e+01
2.073179925025e+01
2.016859252989e+01
2.072781404354e+01
2.017561552967e+01
2.073066308347e+01
2.018018115807e+01
2.072333775401e+01
2.015783591408e+01
2.537877016798e+01
2.967794787902e+01
2.967509212136e+01
2.965748422525e+01
2.967306623428e+01
3.444046541722e+01
3.454365752945e+01
3.475005389395e+01
3.424332065512e+01
3.019387099898e+01
3.183260918113e+01
3.434025221430e+01
3.442516372210e+01
3.176944121801e+01
3.018599619252e+01
3.008114807835e+01
3.071098548984e+01
3.025124101839e+01
3.019381959682e+01
3.182608600937e+01
3.434828390934e+01
3.008647898276e+01
3.071501262044e+01
3.023561770718e+01
3.017734869897e+01
3.189470556245e+01
3.426234847517e+01
3.008079120505e+01
3.071455615512e+01
3.025343507820e+01
3.024984589610e+01
3.071442756337e+01
3.008255339294e+01
3.185148998634e+01
3.071831261864e+01
3.184032360553e+01
3.073437649838e+01
3.184107444269e+01
3.074140463895e+01
3.183225920884e+01
3.069919592044e+01
2.996496542745e+01
3.501076833666e+01
3.500705787858e+01
3.499139497678e+01
3.500430461154e+01
3.783621973590e+01
3.794416335850e+01
3.814950055574e+01
3.764734824108e+01
3.555092577217e+01
3.713848504728e+01
3.908524710431e+01
3.916060926862e+01
3.709069548308e+01
3.554156175226e+01
3.545107967677e+01
3.611993697291e+01
3.561788892111e+01
3.555036720399e+01
3.713483210124e+01
3.910709089880e+01
3.545678273303e+01
3.612322101960e+01
3.560235470989e+01
3.553882049568e+01
3.718904615111e+01
3.903625806366e+01
3.545118144696e+01
3.612396138244e+01
3.562038985166e+01
3.561653116188e+01
3.612364303163e+01
3.545281441931e+01
3.727066244093e+01
3.609539395315e+01
3.725821762959e+01
3.611586865795e+01
3.725754678882e+01
3.611680917678e+01
3.725116372378e+01
3.607587580850e+01
3.075168185714e+01
3.780177546233e+01
3.779808203460e+01
3.778386339096e+01
3.779692482442e+01
3.963173104140e+01
3.974220065572e+01
3.995300449160e+01
3.943514815112e+01
3.828372686111e+01
3.967073506430e+01
4.129288150709e+01
4.136186728059e+01
3.963098526895e+01
3.827537235256e+01
3.820219871907e+01
3.879959052943e+01
3.834803112375e+01
3.828297002820e+01
3.966759195569e+01
4.131467671413e+01
3.820681322901e+01
3.880246782030e+01
3.833421235363e+01
3.827403755788e+01
3.971300213538e+01
4.124755873314e+01
3.820180432626e+01
3.880349286330e+01
3.834981013592e+01
3.834651317332e+01
3.880299717858e+01
3.820378975796e+01
3.980520296545e+01
3.876717333766e+01
3.979408984566e+01
3.878629439004e+01
3.979394989143e+01
3.878593033935e+01
3.978864685679e+01
3.875028846804e+01
3.148658217785e+01
3.905076847901e+01
3.904725195486e+01
3.903368008784e+01
3.904664523208e+01
4.039599634344e+01
4.050604313735e+01
4.071531406077e+01
4.020079320354e+01
3.949969787303e+01
4.079494472260e+01
4.225652612780e+01
4.232193659859e+01
4.075936485261e+01
3.949118590714e+01
3.942283502659e+01
3.998197339814e+01
3.956063441817e+01
3.949903729538e+01
4.079213387762e+01
4.227911037574e+01
3.942718565961e+01
3.998461774160e+01
3.954770834066e+01
3.949186096618e+01
4.083284235324e+01
4.221505142004e+01
3.942259000146e+01
3.998576588424e+01
3.956228547902e+01
3.955918608566e+01
3.998527908643e+01
3.942442058908e+01
4.092995292313e+01
3.995178686485e+01
4.091929228161e+01
3.996979033131e+01
4.091881732840e+01
3.996934059149e+01
4.091429296067e+01
3.993601117059e+01
3.185778065782e+01
3.955213456565e+01
3.954870202497e+01
3.953546490489e+01
3.954817923289e+01
4.073230424573e+01
4.084195327183e+01
4.105048687049e+01
4.053746085679e+01
3.998857503764e+01
4.124638348614e+01
4.264877237994e+01
4.271275382399e+01
4.121230109359e+01
3.998013980215e+01
3.991408204728e+01
4.045821352451e+01
4.004822393293e+01
3.998793307551e+01
4.124368614653e+01
4.267134851671e+01
3.991832564976e+01
4.046078114497e+01
4.003565714947e+01
3.998125556038e+01
4.128269750252e+01
4.260837270917e+01
3.991386756168e+01
4.046194306097e+01
4.004980056072e+01
4.004679409115e+01
4.046144807397e+01
3.991563445381e+01
4.138082821063e+01
4.042826398992e+01
4.137041761490e+01
4.044586509957e+01
4.136992341462e+01
4.044530686375e+01
4.136562050796e+01
4.041293576638e+01
3.207629947870e+01
3.972805175502e+01
3.972465325639e+01
3.971153350766e+01
3.972418164912e+01
4.083985971516e+01
4.094920048878e+01
4.115708054556e+01
4.064557362079e+01
4.015912208935e+01
4.140127338364e+01
4.277836040181e+01
4.284169671725e+01
4.136782970331e+01
4.015069443551e+01
4.008554791034e+01
4.062331051076e+01
4.021821600746e+01
4.015849298469e+01
4.139863015167e+01
4.280096702579e+01
4.008975220359e+01
4.062584846110e+01
4.020580442257e+01
4.015204158734e+01
4.143690840712e+01
4.273853813240e+01
4.008535814555e+01
4.062701871082e+01
4.021976225587e+01
4.021679006569e+01
4.062651679655e+01
4.008709134178e+01
4.153553451285e+01
4.059356221128e+01
4.152522367777e+01
4.061098864096e+01
4.152469903526e+01
4.061039124322e+01
4.152049707543e+01
4.057841738754e+01
3.215042665715e+01
3.948990722102e+01
3.948656536122e+01
3.947366206866e+01
3.948579326262e+01
4.081236092252e+01
4.091763353751e+01
4.111859126937e+01
4.062414813386e+01
3.992094644695e+01
4.116289284275e+01
4.257116791438e+01
4.263395998428e+01
4.112857207225e+01
3.991291600773e+01
3.984742662594e+01
4.038373492427e+01
3.997921177660e+01
3.992029734183e+01
4.116018412190e+01
4.259245416181e+01
3.985160923594e+01
4.038627522290e+01
3.996681948259e+01
3.991320385685e+01
4.119945124645e+01
4.253079228045e+01
3.984716956537e+01
4.038732824852e+01
3.998080143301e+01
3.997783671275e+01
4.038686900098e+01
3.984890861858e+01
4.129130619348e+01
4.035458539107e+01
4.128115833656e+01
4.037185500868e+01
4.128081873266e+01
4.037139077442e+01
4.127638060170e+01
4.033944219832e+01
3.260224364983e+01
3.919023697700e+01
3.918692873523e+01
3.917415066467e+01
3.918589044479e+01
4.071471176964e+01
4.081667313506e+01
4.101195662812e+01
4.053157333574e+01
3.962336478435e+01
4.087155765860e+01
4.231550874624e+01
4.237808219748e+01
4.083626482321e+01
3.961564622998e+01
3.954946201198e+01
4.008712266244e+01
3.968115310571e+01
3.962269708479e+01
4.086877663230e+01
4.233571500649e+01
3.955364667637e+01
4.008967693685e+01
3.966871528357e+01
3.961499266617e+01
4.090914298434e+01
4.227452642733e+01
3.954914669332e+01
4.009063117592e+01
3.968279343849e+01
3.967981904412e+01
4.009020999338e+01
3.955089950090e+01
4.099527045854e+01
4.005845634389e+01
4.098521169034e+01
4.007566325284e+01
4.098502321828e+01
4.007532979308e+01
4.098035575154e+01
4.004323735473e+01
3.292720070092e+01
3.896944456241e+01
3.896616963698e+01
3.895351600878e+01
3.896492146149e+01
4.064874250827e+01
4.074793291781e+01
4.093845999886e+01
4.046984212767e+01
3.940337380298e+01
4.065400059334e+01
4.212309316956e+01
4.218538106690e+01
4.061801382598e+01
3.939591636071e+01
3.932932432698e+01
3.986699919713e+01
3.946067681367e+01
3.940269242815e+01
4.065116803539e+01
4.214241014199e+01
3.933350272921e+01
3.986955978769e+01
3.944822779207e+01
3.939452179884e+01
4.069231760462e+01
4.208169511944e+01
3.932896355707e+01
3.987043397398e+01
3.946235311562e+01
3.945937721712e+01
3.987004311643e+01
3.933072325926e+01
4.077378641600e+01
3.983875511663e+01
4.076381886291e+01
3.985588035288e+01
4.076375209829e+01
3.985564797208e+01
4.075891215617e+01
3.982350627474e+01
3.320304198658e+01
3.879132660215e+01
3.878807986065e+01
3.877553017288e+01
3.878666261865e+01
4.059563100738e+01
4.069254949362e+01
4.087917313282e+01
4.042020956624e+01
3.922576192088e+01
4.047798169536e+01
4.196705766495e+01
4.202909766670e+01
4.044144198796e+01
3.921851784512e+01
3.915161265647e+01
3.968912253996e+01
3.928265248367e+01
3.922506989851e+01
4.047510771212e+01
4.198564752617e+01
3.915578471424e+01
3.969168761515e+01
3.927019826614e+01
3.921652423615e+01
4.051688042272e+01
4.192533098522e+01
3.915121532522e+01
3.969249659209e+01
3.928435731080e+01
3.928138117622e+01
3.969213042152e+01
3.915297996265e+01
4.059453179339e+01
3.966123741565e+01
4.058464121283e+01
3.967829021099e+01
4.058467286702e+01
3.967814111985e+01
4.057969464530e+01
3.964596920686e+01
3.342946728723e+01
3.865863012405e+01
3.865540703340e+01
3.864294387953e+01
3.865386154491e+01
4.055714196665e+01
4.065227772009e+01
4.083583553726e+01
4.038444973363e+01
3.909318730166e+01
4.034587351763e+01
4.184935036300e+01
4.191116802570e+01
4.030893239690e+01
3.908611034511e+01
3.901900560036e+01
3.955606167790e+01
3.914972853436e+01
3.909248762662e+01
4.034296918073e+01
4.186737331959e+01
3.902317033184e+01
3.955862879373e+01
3.913727784183e+01
3.908366069025e+01
4.038519331018e+01
4.180739008969e+01
3.901858056630e+01
3.955938735844e+01
3.915145393375e+01
3.914847951100e+01
3.955904019497e+01
3.902034782134e+01
4.045987327407e+01
3.952847009197e+01
4.045004765742e+01
3.954545695038e+01
4.045015486938e+01
3.954537203558e+01
4.044507375907e+01
3.951319633139e+01
3.360774235477e+01
3.856911786628e+01
3.856591373405e+01
3.855351932953e+01
3.856427916122e+01
4.053252209391e+01
4.062635211755e+01
4.080766293277e+01
4.036182511464e+01
3.900346831101e+01
4.025565071226e+01
4.176831664496e+01
4.182994195707e+01
4.021844994711e+01
3.899651375471e+01
3.892931334098e+01
3.946568711213e+01
3.905972624141e+01
3.900276372893e+01
4.025272636503e+01
4.178592740272e+01
3.893347004440e+01
3.946825414130e+01
3.904728631297e+01
3.899374443464e+01
4.029524136968e+01
4.172620959090e+01
3.892886889902e+01
3.946897655674e+01
3.906146470687e+01
3.905849361352e+01
3.946864291993e+01
3.893063685507e+01
4.036776647488e+01
3.943832234917e+01
4.035799349437e+01
3.945525109893e+01
4.035815454439e+01
3.945521193615e+01
4.035300393943e+01
3.942305499834e+01
3.373909598505e+01
3.851614593026e+01
3.851295541347e+01
3.850060913614e+01
3.851126681073e+01
4.051878272458e+01
4.061176948071e+01
4.079163085389e+01
4.034936729607e+01
3.895014687829e+01
4.020141924904e+01
4.171914043631e+01
4.178062256628e+01
4.016407311987e+01
3.894327128802e+01
3.887603981706e+01
3.941171745934e+01
3.900619945798e+01
3.894943979261e+01
4.019848307989e+01
4.173648581139e+01
3.888018945356e+01
3.941428328129e+01
3.899377219960e+01
3.894030573762e+01
4.024115976265e+01
4.167695196555e+01
3.887558349353e+01
3.941498276794e+01
3.900794514928e+01
3.900497769972e+01
3.941465781007e+01
3.887735100958e+01
4.031228987061e+01
3.938451680517e+01
4.030255442153e+01
3.940140005289e+01
4.030274909167e+01
3.940139101337e+01
4.029755764864e+01
3.936926103439e+01
3.382458187706e+01
3.852810014979e+01
3.852492165426e+01
3.851261806361e+01
3.852322719570e+01
4.053140772347e+01
4.062402953330e+01
4.080325877082e+01
4.036252822057e+01
3.896081355952e+01
4.020836783898e+01
4.172285655092e+01
4.178415868094e+01
4.017109552931e+01
3.895397322577e+01
3.888693568837e+01
3.942096566625e+01
3.901667509925e+01
3.896010762472e+01
4.020543617682e+01
4.174009880857e+01
3.889107189871e+01
3.942352485055e+01
3.900428540085e+01
3.895097610492e+01
4.024802546523e+01
4.168073023760e+01
3.888647736993e+01
3.942421737825e+01
3.901841581171e+01
3.901545798526e+01
3.942389425946e+01
3.888823997537e+01
4.031866573034e+01
3.939386165773e+01
4.030896688832e+01
3.941068914529e+01
4.030917137861e+01
3.941068501151e+01
4.030398458732e+01
3.937865158684e+01
3.386762365268e+01
3.854390747919e+01
3.854073596501e+01
3.852845130383e+01
3.853902784687e+01
4.053956141951e+01
4.063218341219e+01
4.081140811963e+01
4.037067727960e+01
3.897615032479e+01
4.022247171900e+01
4.173451846473e+01
4.179576532069e+01
4.018526527126e+01
3.896930386718e+01
3.890229207770e+01
3.943578423399e+01
3.903192921740e+01
3.897544773894e+01
4.021954657109e+01
4.175177852101e+01
3.890643180213e+01
3.943834002203e+01
3.901955277570e+01
3.896633913859e+01
4.026206082449e+01
4.169245672118e+01
3.890184250345e+01
3.943903167874e+01
3.903367156760e+01
3.903071589580e+01
3.943870980206e+01
3.890359469976e+01
4.033281707177e+01
3.940876464752e+01
4.032312536898e+01
3.942557487559e+01
4.032332252541e+01
3.942556992394e+01
4.031814600107e+01
3.939356569554e+01
3.386771509855e+01
3.848801570243e+01
3.848482673506e+01
3.847243514226e+01
3.848319893829e+01
4.050061543130e+01
4.059328425530e+01
4.077258182600e+01
4.033170162675e+01
3.892083311147e+01
4.016927611469e+01
4.168722317062e+01
4.174861179600e+01
4.013189030868e+01
3.891396992043e+01
3.884693729654e+01
3.938111327740e+01
3.897680548210e+01
3.892013025447e+01
4.016633073714e+01
4.170443262100e+01
3.885107056104e+01
3.938369169279e+01
3.896441419386e+01
3.891097959351e+01
4.020900470778e+01
4.164495474335e+01
3.884647998773e+01
3.938438486465e+01
3.897852572723e+01
3.897556235594e+01
3.938404308618e+01
3.884824785120e+01
4.027909242417e+01
3.935402417707e+01
4.026939735649e+01
3.937085305324e+01
4.026959960991e+01
3.937086567853e+01
4.026439563211e+01
3.933880881089e+01
3.385044363759e+01
3.812666547251e+01
3.812346793430e+01
3.811113261790e+01
3.812117119332e+01
4.028319781859e+01
4.037510928163e+01
4.055327746731e+01
4.011526294548e+01
3.857222067686e+01
3.984963256353e+01
4.140719994440e+01
4.146920929393e+01
3.981121559246e+01
3.856548041014e+01
3.849720829218e+01
3.904593576196e+01
3.862925224074e+01
3.857147590716e+01
3.984668510151e+01
4.142426860001e+01
3.850154261432e+01
3.904859046494e+01
3.861658538373e+01
3.856159914526e+01
3.989059127420e+01
4.136450908739e+01
3.849678418572e+01
3.904920120447e+01
3.863104550629e+01
3.862801271758e+01
3.904884776792e+01
3.849847700005e+01
3.996256140653e+01
3.901690530262e+01
3.995276358789e+01
3.903429239087e+01
3.995310750545e+01
3.903403155245e+01
3.994760639340e+01
3.900124078085e+01
3.377021731734e+01
3.695807786094e+01
3.695528691839e+01
3.694160430366e+01
3.695290385738e+01
3.954941980269e+01
3.964390736608e+01
3.982636658877e+01
3.937865667787e+01
3.740378408270e+01
3.875121782439e+01
4.048818194623e+01
4.055452642431e+01
3.870837092408e+01
3.739560883305e+01
3.731460949940e+01
3.786651690828e+01
3.745705462650e+01
3.740354825237e+01
3.874759535959e+01
4.050463270297e+01
3.731955230539e+01
3.786944621317e+01
3.744403199366e+01
3.739336016561e+01
3.879537972249e+01
4.044027791527e+01
3.731488667366e+01
3.786979944962e+01
3.745916663385e+01
3.745594761084e+01
3.786958388135e+01
3.731600215208e+01
3.884045834412e+01
3.785606210644e+01
3.883019417787e+01
3.787213750976e+01
3.882966065810e+01
3.787443120109e+01
3.882393722758e+01
3.783961842466e+01
3.343312040415e+01
3.466368010929e+01
3.466192423185e+01
3.465169161991e+01
3.466161446499e+01
3.695977125530e+01
3.701941283252e+01
3.714324156466e+01
3.683698073055e+01
3.494881461367e+01
3.585287886895e+01
3.717359079238e+01
3.722104604228e+01
3.581965364350e+01
3.494375240028e+01
3.488651080650e+01
3.523772330204e+01
3.498193020930e+01
3.494875472357e+01
3.584963932945e+01
3.718028290730e+01
3.488938560475e+01
3.523985682847e+01
3.497333268363e+01
3.494087090487e+01
3.588584887493e+01
3.713256348420e+01
3.488633534557e+01
3.523984364434e+01
3.498319951367e+01
3.498110591593e+01
3.523973926530e+01
3.488740890301e+01
3.587605041866e+01
3.524035994161e+01
3.586964498380e+01
3.524951608832e+01
3.586971877501e+01
3.525299422730e+01
3.586524955040e+01
3.522970076452e+01
3.319345044251e+01
3.399119736585e+01
3.398978328598e+01
3.398492894489e+01
3.398727830351e+01
3.607203737615e+01
3.609303536362e+01
3.612557634030e+01
3.605147285735e+01
3.421328329716e+01
3.484775369468e+01
3.572184593358e+01
3.574640084366e+01
3.482616337143e+01
3.421147092404e+01
3.417540983158e+01
3.444405984774e+01
3.423782169095e+01
3.421290307649e+01
3.484626046426e+01
3.572588468351e+01
3.417758087595e+01
3.444528558036e+01
3.423156395122e+01
3.420564130396e+01
3.487128996413e+01
3.570627268313e+01
3.417514985397e+01
3.444524625318e+01
3.423905419001e+01
3.423754958812e+01
3.444532501790e+01
3.417594212092e+01
3.488628365382e+01
3.443226548275e+01
3.488166741222e+01
3.444037194702e+01
3.488189491904e+01
3.444074582087e+01
3.487866396755e+01
3.442448414845e+01
3.687998698832e+01
3.332709192221e+01
3.332599840589e+01
3.332476782521e+01
3.332285492972e+01
3.456556648084e+01
3.457293627270e+01
3.458833874817e+01
3.455200511342e+01
3.348392651021e+01
3.386868795749e+01
3.434033413094e+01
3.435314290975e+01
3.385704487783e+01
3.348438059841e+01
3.346820861130e+01
3.365387771949e+01
3.350181967390e+01
3.348320921351e+01
3.386832397073e+01
3.434252229164e+01
3.346943142743e+01
3.365437223701e+01
3.349777793219e+01
3.347758007093e+01
3.388313589597e+01
3.433356036078e+01
3.346750153032e+01
3.365431542322e+01
3.350272183498e+01
3.350180230576e+01
3.365445302915e+01
3.346828674247e+01
3.391455923698e+01
3.363133369712e+01
3.391198304473e+01
3.363802499110e+01
3.391316710565e+01
3.363601986302e+01
3.391077700646e+01
3.362632914843e+01
3.449008149834e+01
3.270102985551e+01
3.270012345767e+01
3.269989987707e+01
3.269834493673e+01
3.330140439643e+01
3.330538594480e+01
3.331341744393e+01
3.329438852860e+01
3.279973397864e+01
3.300934513740e+01
3.323105542189e+01
3.323728773355e+01
3.300384562748e+01
3.280076766237e+01
3.279683417117e+01
3.291196673232e+01
3.281300244251e+01
3.279902806836e+01
3.300937075592e+01
3.323246063072e+01
3.279725488193e+01
3.291216595556e+01
3.281060787849e+01
3.279555866665e+01
3.301712869752e+01
3.322860725508e+01
3.279599095385e+01
3.291225515297e+01
3.281337407608e+01
3.281289891839e+01
3.291226397073e+01
3.279682894848e+01
3.304760858063e+01
3.288880611932e+01
3.304621919532e+01
3.289361468612e+01
3.304744513671e+01
3.289121355676e+01
3.304600917738e+01
3.288607175533e+01
3.334599930586e+01
3.213527443555e+01
3.213455351541e+01
3.213435998231e+01
3.213422439836e+01
3.242252146779e+01
3.242401439763e+01
3.242682729558e+01
3.242046036065e+01
3.219051384667e+01
3.229351053728e+01
3.239147635748e+01
3.239429560855e+01
3.229099417706e+01
3.219145783491e+01
3.219275963034e+01
3.225643177057e+01
3.219964604026e+01
3.218997100356e+01
3.229358360749e+01
3.239218932595e+01
3.219267873749e+01
3.225650956179e+01
3.219834916152e+01
3.218813389322e+01
3.229749529579e+01
3.239080676140e+01
3.219197383929e+01
3.225668718548e+01
3.219968690202e+01
3.219946916614e+01
3.225662038203e+01
3.219278597106e+01
3.231776150637e+01
3.223865991217e+01
3.231704737391e+01
3.224162392151e+01
3.231795910928e+01
3.223982728340e+01
3.231721085016e+01
3.223740367066e+01
3.242807125866e+01
3.059576737347e+01
3.059566496760e+01
3.059565274666e+01
3.059604693350e+01
3.058822363176e+01
3.058815035238e+01
3.058805797893e+01
3.058832050838e+01
3.059580480933e+01
3.059343911572e+01
3.058983383998e+01
3.058980950629e+01
3.059355212658e+01
3.059594458368e+01
3.059667565922e+01
3.059662102937e+01
3.059627536388e+01
3.059574330025e+01
3.059343115694e+01
3.058980361480e+01
3.059650721757e+01
3.059656233683e+01
3.059624511699e+01
3.059585646145e+01