# vtk DataFile Version 3.0
Unstructured Grid from OpenGeoSys
ASCII
DATASET UNSTRUCTURED_GRID
FIELD TimesAndCycles 2
TIME 1 1 double
3.600000000000e+03
CYLCE 1 1 long
1
POINTS 1394 double
0.000000000000e+00 0.000000000000e+00 0.000000000000e+00
5.000000000000e+00 0.000000000000e+00 0.000000000000e+00
5.000000000000e+00 5.000000000000e+00 0.000000000000e+00
0.000000000000e+00 5.000000000000e+00 0.000000000000e+00
2.244234909000e+00 2.244234909000e+00 0.000000000000e+00
2.755765091000e+00 2.244234909000e+00 0.000000000000e+00
2.755765091000e+00 2.755765091000e+00 0.000000000000e+00
2.244234909000e+00 2.755765091000e+00 0.000000000000e+00
7.141316008320e-01 7.141316008320e-01 0.000000000000e+00
1.314642334730e+00 1.314642334730e+00 0.000000000000e+00
1.819609643610e+00 1.819609643610e+00 0.000000000000e+00
1.819609643610e+00 3.180390356390e+00 0.000000000000e+00
1.314642334740e+00 3.685357665260e+00 0.000000000000e+00
7.141316008360e-01 4.285868399160e+00 0.000000000000e+00
0.000000000000e+00 3.750000000000e+00 0.000000000000e+00
0.000000000000e+00 2.500000000000e+00 0.000000000000e+00
0.000000000000e+00 1.250000000000e+00 0.000000000000e+00
4.285868399170e+00 7.141316008320e-01 0.000000000000e+00
3.685357665270e+00 1.314642334730e+00 0.000000000000e+00
3.180390356390e+00 1.819609643610e+00 0.000000000000e+00
1.250000000000e+00 0.000000000000e+00 0.000000000000e+00
2.500000000000e+00 0.000000000000e+00 0.000000000000e+00
3.750000000000e+00 0.000000000000e+00 0.000000000000e+00
4.285868399170e+00 4.285868399170e+00 0.000000000000e+00
3.685357665270e+00 3.685357665270e+00 0.000000000000e+00
3.180390356390e+00 3.180390356390e+00 0.000000000000e+00
5.000000000000e+00 1.250000000000e+00 0.000000000000e+00
5.000000000000e+00 2.500000000000e+00 0.000000000000e+00
5.000000000000e+00 3.750000000000e+00 0.000000000000e+00
3.750000000000e+00 5.000000000000e+00 0.000000000000e+00
2.500000000000e+00 5.000000000000e+00 0.000000000000e+00
1.250000000000e+00 5.000000000000e+00 0.000000000000e+00
9.560744151940e-01 2.677827143250e+00 0.000000000000e+00
6.659597640160e-01 1.438876720610e+00 0.000000000000e+00
2.309219871940e+00 9.522638293400e-01 0.000000000000e+00
3.458157207860e+00 6.354750772000e-01 0.000000000000e+00
4.043925584810e+00 2.322172856750e+00 0.000000000000e+00
4.334040235980e+00 3.561123279390e+00 0.000000000000e+00
2.318530875810e+00 4.048536535600e+00 0.000000000000e+00
3.552396921680e+00 4.370927842320e+00 0.000000000000e+00
2.500000000000e+00 2.500000000000e+00 0.000000000000e+00
0.000000000000e+00 0.000000000000e+00 -5.000000000000e-01
5.000000000000e+00 0.000000000000e+00 -5.000000000000e-01
5.000000000000e+00 5.000000000000e+00 -5.000000000000e-01
0.000000000000e+00 5.000000000000e+00 -5.000000000000e-01
2.244234909000e+00 2.244234909000e+00 -5.000000000000e-01
2.755765091000e+00 2.244234909000e+00 -5.000000000000e-01
2.755765091000e+00 2.755765091000e+00 -5.000000000000e-01
2.244234909000e+00 2.755765091000e+00 -5.000000000000e-01
7.141316008320e-01 7.141316008320e-01 -5.000000000000e-01
1.314642334730e+00 1.314642334730e+00 -5.000000000000e-01
1.819609643610e+00 1.819609643610e+00 -5.000000000000e-01
1.819609643610e+00 3.180390356390e+00 -5.000000000000e-01
1.314642334740e+00 3.685357665260e+00 -5.000000000000e-01
7.141316008360e-01 4.285868399160e+00 -5.000000000000e-01
0.000000000000e+00 3.750000000000e+00 -5.000000000000e-01
0.000000000000e+00 2.500000000000e+00 -5.000000000000e-01
0.000000000000e+00 1.250000000000e+00 -5.000000000000e-01
4.285868399170e+00 7.141316008320e-01 -5.000000000000e-01
3.685357665270e+00 1.314642334730e+00 -5.000000000000e-01
3.180390356390e+00 1.819609643610e+00 -5.000000000000e-01
1.250000000000e+00 0.000000000000e+00 -5.000000000000e-01
2.500000000000e+00 0.000000000000e+00 -5.000000000000e-01
3.750000000000e+00 0.000000000000e+00 -5.000000000000e-01
4.285868399170e+00 4.285868399170e+00 -5.000000000000e-01
3.685357665270e+00 3.685357665270e+00 -5.000000000000e-01
3.180390356390e+00 3.180390356390e+00 -5.000000000000e-01
5.000000000000e+00 1.250000000000e+00 -5.000000000000e-01
5.000000000000e+00 2.500000000000e+00 -5.000000000000e-01
5.000000000000e+00 3.750000000000e+00 -5.000000000000e-01
3.750000000000e+00 5.000000000000e+00 -5.000000000000e-01
2.500000000000e+00 5.000000000000e+00 -5.000000000000e-01
1.250000000000e+00 5.000000000000e+00 -5.000000000000e-01
9.560744151940e-01 2.677827143250e+00 -5.000000000000e-01
6.659597640160e-01 1.438876720610e+00 -5.000000000000e-01
2.309219871940e+00 9.522638293400e-01 -5.000000000000e-01
3.458157207860e+00 6.354750772000e-01 -5.000000000000e-01
4.043925584810e+00 2.322172856750e+00 -5.000000000000e-01
4.334040235980e+00 3.561123279390e+00 -5.000000000000e-01
2.318530875810e+00 4.048536535600e+00 -5.000000000000e-01
3.552396921680e+00 4.370927842320e+00 -5.000000000000e-01
2.500000000000e+00 2.500000000000e+00 -5.000000000000e-01
0.000000000000e+00 0.000000000000e+00 -1.000000000000e+00
5.000000000000e+00 0.000000000000e+00 -1.000000000000e+00
5.000000000000e+00 5.000000000000e+00 -1.000000000000e+00
0.000000000000e+00 5.000000000000e+00 -1.000000000000e+00
2.244234909000e+00 2.244234909000e+00 -1.000000000000e+00
2.755765091000e+00 2.244234909000e+00 -1.000000000000e+00
2.755765091000e+00 2.755765091000e+00 -1.000000000000e+00
2.244234909000e+00 2.755765091000e+00 -1.000000000000e+00
7.141316008320e-01 7.141316008320e-01 -1.000000000000e+00
1.314642334730e+00 1.314642334730e+00 -1.000000000000e+00
1.819609643610e+00 1.819609643610e+00 -1.000000000000e+00
1.819609643610e+00 3.180390356390e+00 -1.000000000000e+00
1.314642334740e+00 3.685357665260e+00 -1.000000000000e+00
7.141316008360e-01 4.285868399160e+00 -1.000000000000e+00
0.000000000000e+00 3.750000000000e+00 -1.000000000000e+00
0.000000000000e+00 2.500000000000e+00 -1.000000000000e+00
0.000000000000e+00 1.250000000000e+00 -1.000000000000e+00
4.285868399170e+00 7.141316008320e-01 -1.000000000000e+00
3.685357665270e+00 1.314642334730e+00 -1.000000000000e+00
3.180390356390e+00 1.819609643610e+00 -1.000000000000e+00
1.250000000000e+00 0.000000000000e+00 -1.000000000000e+00
2.500000000000e+00 0.000000000000e+00 -1.000000000000e+00
3.750000000000e+00 0.000000000000e+00 -1.000000000000e+00
4.285868399170e+00 4.285868399170e+00 -1.000000000000e+00
3.685357665270e+00 3.685357665270e+00 -1.000000000000e+00
3.180390356390e+00 3.180390356390e+00 -1.000000000000e+00
5.000000000000e+00 1.250000000000e+00 -1.000000000000e+00
5.000000000000e+00 2.500000000000e+00 -1.000000000000e+00
5.000000000000e+00 3.750000000000e+00 -1.000000000000e+00
3.750000000000e+00 5.000000000000e+00 -1.000000000000e+00
2.500000000000e+00 5.000000000000e+00 -1.000000000000e+00
1.250000000000e+00 5.000000000000e+00 -1.000000000000e+00
9.560744151940e-01 2.677827143250e+00 -1.000000000000e+00
6.659597640160e-01 1.438876720610e+00 -1.000000000000e+00
2.309219871940e+00 9.522638293400e-01 -1.000000000000e+00
3.458157207860e+00 6.354750772000e-01 -1.000000000000e+00
4.043925584810e+00 2.322172856750e+00 -1.000000000000e+00
4.334040235980e+00 3.561123279390e+00 -1.000000000000e+00
2.318530875810e+00 4.048536535600e+00 -1.000000000000e+00
3.552396921680e+00 4.370927842320e+00 -1.000000000000e+00
2.500000000000e+00 2.500000000000e+00 -1.000000000000e+00
0.000000000000e+00 0.000000000000e+00 -3.000000000000e+00
5.000000000000e+00 0.000000000000e+00 -3.000000000000e+00
5.000000000000e+00 5.000000000000e+00 -3.000000000000e+00
0.000000000000e+00 5.000000000000e+00 -3.000000000000e+00
2.244234909000e+00 2.244234909000e+00 -3.000000000000e+00
2.755765091000e+00 2.244234909000e+00 -3.000000000000e+00
2.755765091000e+00 2.755765091000e+00 -3.000000000000e+00
2.244234909000e+00 2.755765091000e+00 -3.000000000000e+00
7.141316008320e-01 7.141316008320e-01 -3.000000000000e+00
1.314642334730e+00 1.314642334730e+00 -3.000000000000e+00
1.819609643610e+00 1.819609643610e+00 -3.000000000000e+00
1.819609643610e+00 3.180390356390e+00 -3.000000000000e+00
1.314642334740e+00 3.685357665260e+00 -3.000000000000e+00
7.141316008360e-01 4.285868399160e+00 -3.000000000000e+00
0.000000000000e+00 3.750000000000e+00 -3.000000000000e+00
0.000000000000e+00 2.500000000000e+00 -3.000000000000e+00
0.000000000000e+00 1.250000000000e+00 -3.000000000000e+00
4.285868399170e+00 7.141316008320e-01 -3.000000000000e+00
3.685357665270e+00 1.314642334730e+00 -3.000000000000e+00
3.180390356390e+00 1.819609643610e+00 -3.000000000000e+00
1.250000000000e+00 0.000000000000e+00 -3.000000000000e+00
2.500000000000e+00 0.000000000000e+00 -3.000000000000e+00
3.750000000000e+00 0.000000000000e+00 -3.000000000000e+00
4.285868399170e+00 4.285868399170e+00 -3.000000000000e+00
3.685357665270e+00 3.685357665270e+00 -3.000000000000e+00
3.180390356390e+00 3.180390356390e+00 -3.000000000000e+00
5.000000000000e+00 1.250000000000e+00 -3.000000000000e+00
5.000000000000e+00 2.500000000000e+00 -3.000000000000e+00
5.000000000000e+00 3.750000000000e+00 -3.000000000000e+00
3.750000000000e+00 5.000000000000e+00 -3.000000000000e+00
2.500000000000e+00 5.000000000000e+00 -3.000000000000e+00
1.250000000000e+00 5.000000000000e+00 -3.000000000000e+00
9.560744151940e-01 2.677827143250e+00 -3.000000000000e+00
6.659597640160e-01 1.438876720610e+00 -3.000000000000e+00
2.309219871940e+00 9.522638293400e-01 -3.000000000000e+00
3.458157207860e+00 6.354750772000e-01 -3.000000000000e+00
4.043925584810e+00 2.322172856750e+00 -3.000000000000e+00
4.334040235980e+00 3.561123279390e+00 -3.000000000000e+00
2.318530875810e+00 4.048536535600e+00 -3.000000000000e+00
3.552396921680e+00 4.370927842320e+00 -3.000000000000e+00
2.500000000000e+00 2.500000000000e+00 -3.000000000000e+00
0.000000000000e+00 0.000000000000e+00 -5.000000000000e+00
5.000000000000e+00 0.000000000000e+00 -5.000000000000e+00
5.000000000000e+00 5.000000000000e+00 -5.000000000000e+00
0.000000000000e+00 5.000000000000e+00 -5.000000000000e+00
2.244234909000e+00 2.244234909000e+00 -5.000000000000e+00
[...]
POINT_DATA 1394
SCALARS TEMPERATURE1 double 1
LOOKUP_TABLE default
1.000000000000e+01
1.000000000000e+01
1.000000000000e+01
1.000000000000e+01
1.000000000000e+01
1.000000000000e+01
1.000000000000e+01
1.000000000000e+01
1.000000000000e+01
1.000000000000e+01
1.000000000000e+01
1.000000000000e+01
1.000000000000e+01
1.000000000000e+01
1.000000000000e+01
1.000000000000e+01
1.000000000000e+01
1.000000000000e+01
1.000000000000e+01
1.000000000000e+01
1.000000000000e+01
1.000000000000e+01
1.000000000000e+01
1.000000000000e+01
1.000000000000e+01
1.000000000000e+01
1.000000000000e+01
1.000000000000e+01
1.000000000000e+01
1.000000000000e+01
1.000000000000e+01
1.000000000000e+01
1.000000000000e+01
1.000000000000e+01
1.000000000000e+01
1.000000000000e+01
1.000000000000e+01
1.000000000000e+01
1.000000000000e+01
1.000000000000e+01
1.000000000000e+01
2.982856931783e+01
2.982872407877e+01
2.983082493266e+01
2.982655666100e+01
3.000329964041e+01
2.998893703617e+01
2.995311068562e+01
3.004336483882e+01
2.983161662899e+01
2.981338881224e+01
2.973210280167e+01
2.972509072607e+01
2.981595901008e+01
2.983231469052e+01
2.983208282855e+01
2.983507005423e+01
2.982842237374e+01
2.983151072141e+01
2.981432652143e+01
2.973180062473e+01
2.983240221623e+01
2.983466849471e+01
2.982860322976e+01
2.983096568684e+01
2.981263260076e+01
2.974231812548e+01
2.983231632118e+01
2.983453340280e+01
2.982904368535e+01
2.982892100156e+01
2.983485583551e+01
2.983195203374e+01
2.982954745155e+01
2.983263330009e+01
2.982961747490e+01
2.983303095078e+01
2.982939572212e+01
2.983198468390e+01
2.982954036264e+01
2.983238270956e+01
2.815819293963e+01
3.024939505516e+01
3.024949980027e+01
3.024491065951e+01
3.025321934138e+01
3.228783276767e+01
3.228034091042e+01
3.240308546230e+01
3.206390998281e+01
3.025093975017e+01
3.032185942159e+01
3.111736093637e+01
3.114921945468e+01
3.029662009263e+01
3.025577933303e+01
3.025617454041e+01
3.023572109935e+01
3.025396948307e+01
3.025032746063e+01
3.031701311361e+01
3.109778085653e+01
3.025383115207e+01
3.023696030302e+01
3.025346946934e+01
3.024204434254e+01
3.034114783207e+01
3.105033622912e+01
3.025276099734e+01
3.023553897279e+01
3.025254234898e+01
3.025309134568e+01
3.023521953700e+01
3.025516569231e+01
3.017556844607e+01
3.024383671842e+01
3.017895200288e+01
3.024061482700e+01
3.018529769582e+01
3.024510728039e+01
3.017972848109e+01
3.024430414797e+01
4.130318145111e+01
2.993694596470e+01
2.993635543300e+01
2.992530355188e+01
2.994717934610e+01
3.243623718366e+01
3.244657459794e+01
3.249602052592e+01
3.236612262029e+01
2.992614994689e+01
3.007199200657e+01
3.100189514260e+01
3.102863614440e+01
3.004479655511e+01
2.992629675994e+01
2.991889970399e+01
2.989560189465e+01
2.993541744696e+01
2.992647930354e+01
3.006679817413e+01
3.098637094723e+01
2.991647815311e+01
2.989796465912e+01
2.993452247304e+01
2.992195273248e+01
3.009102524803e+01
3.095028067535e+01
2.991681842986e+01
2.989764630863e+01
2.993294215792e+01
2.993336329352e+01
2.989639062280e+01
2.991940083398e+01
2.990558441604e+01
2.992150632030e+01
2.990629647147e+01
2.991683113326e+01
2.990820261244e+01
2.992529470252e+01
2.990496609736e+01
2.992226905469e+01
3.906309047031e+01
3.002763649395e+01
3.002713262100e+01
3.001778016991e+01
3.003635824018e+01
3.254599593199e+01
3.255387479524e+01
3.258057368785e+01
3.251206924884e+01
3.001954210778e+01
3.014551122598e+01
3.101011759367e+01
3.103169517602e+01
3.012054150230e+01
3.002039638503e+01
3.001485966385e+01
2.999310706063e+01
3.002746017207e+01
3.001978762967e+01
3.014078034473e+01
3.099423461651e+01
3.001264203914e+01
2.999526245451e+01
3.002662271551e+01
3.001476271327e+01
3.016333488079e+01
3.096460116939e+01
3.001288584601e+01
2.999485662615e+01
3.002513755081e+01
3.002560666342e+01
2.999372629633e+01
3.001525358140e+01
2.999050021031e+01
3.001456301186e+01
2.999125254776e+01
3.001041724412e+01
2.999320901734e+01
3.001801103244e+01
2.999011272915e+01
3.001544820762e+01
3.745609731522e+01
3.000321494540e+01
3.000264138711e+01
2.999330250698e+01
3.001205098207e+01
3.256301599720e+01
3.257371656126e+01
3.257265102249e+01
3.258131941873e+01
2.999464948855e+01
3.011910330661e+01
3.095268617265e+01
3.096975284393e+01
3.009561580645e+01
2.999507789423e+01
2.998962782833e+01
2.996853629186e+01
3.000289746301e+01
2.999500400407e+01
3.011467441549e+01
3.093753036902e+01
2.998754647026e+01
2.997074760477e+01
3.000203859573e+01
2.999045082448e+01
3.013577455299e+01
3.091436628901e+01
2.998798688899e+01
2.997050040407e+01
3.000048597176e+01
3.000096763032e+01
2.996927965808e+01
2.999022509233e+01
2.996999253312e+01
2.998982736213e+01
2.997027060800e+01
2.998582540629e+01
2.997143284124e+01
2.999346890351e+01
2.996890563897e+01
2.999085373375e+01
3.594878017299e+01
3.000926614867e+01
3.000857236193e+01
2.999927692441e+01
3.001830020079e+01
3.263644816054e+01
3.265428693696e+01
3.260781590351e+01
3.274391305567e+01
3.000011160415e+01
3.012119769568e+01
3.090949072345e+01
3.091914126472e+01
3.010006162262e+01
2.999992629693e+01
2.999508669455e+01
2.997479918973e+01
3.000913483500e+01
3.000064175987e+01
3.011718640566e+01
3.089525708324e+01
2.999320896336e+01
2.997713686841e+01
3.000821388576e+01
2.999675713670e+01
3.013596124563e+01
3.088233903454e+01
2.999396035783e+01
2.997714065310e+01
3.000648555831e+01
3.000702833950e+01
2.997574009368e+01
2.999601295523e+01
2.998044745699e+01
2.999526295917e+01
2.997995474781e+01
2.999153065134e+01
2.997989333652e+01
2.999928604166e+01
2.997827843495e+01
2.999661130604e+01
3.298170315700e+01
3.000735456453e+01
3.000689135680e+01
2.999828518306e+01
3.001537400465e+01
3.247389519705e+01
3.247739939185e+01
3.249383035064e+01
3.245168667592e+01
3.000004874456e+01
3.011769747252e+01
3.093018021942e+01
3.094925923379e+01
3.009427008363e+01
3.000096106907e+01
2.999553763028e+01
2.997525839975e+01
3.000707114532e+01
3.000028016147e+01
3.011333828897e+01
3.091505155411e+01
2.999348138770e+01
2.997725332556e+01
3.000630134334e+01
2.999539855384e+01
3.013460697833e+01
3.088920567647e+01
2.999371955396e+01
2.997685723163e+01
3.000496354396e+01
3.000538545976e+01
2.997582781968e+01
2.999591275461e+01
2.997236529055e+01
2.999548490018e+01
2.997305749740e+01
2.999158493650e+01
2.997480581963e+01
2.999867935306e+01
2.997191004785e+01
2.999628480166e+01
3.717073486725e+01
3.000630216360e+01
3.000590244027e+01
2.999864661833e+01
3.001308451331e+01
3.222329278174e+01
3.222433852997e+01
3.222902824673e+01
3.221808606402e+01
3.000030350062e+01
3.010036392050e+01
3.080146740546e+01
3.081653951413e+01
3.008026003868e+01
3.000120150983e+01
2.999663112234e+01
2.997914528358e+01
3.000616727598e+01
3.000050835290e+01
3.009666164639e+01
3.078815802591e+01
2.999487809852e+01
2.998086301610e+01
3.000550467671e+01
2.999614045060e+01
3.011499234115e+01
3.076789317341e+01
2.999510048977e+01
2.998051672373e+01
3.000435856087e+01
3.000472906946e+01
2.997963211517e+01
2.999697133716e+01
2.997506363634e+01
2.999628951299e+01
2.997561844106e+01
2.999295156637e+01
2.997703333663e+01
2.999904638122e+01
2.997457866862e+01
2.999701007528e+01
3.562855164805e+01
3.000558323009e+01
3.000522688506e+01
2.999877065379e+01
3.001162198883e+01
3.192906862329e+01
3.193125646526e+01
3.193733170114e+01
3.192268488900e+01
3.000015995049e+01
3.008844362357e+01
3.070500358401e+01
3.071852905805e+01
3.007076644903e+01
3.000090030904e+01
2.999693718320e+01
2.998148103462e+01
3.000545569699e+01
3.000033863895e+01
3.008518101975e+01
3.069333859736e+01
2.999538392288e+01
2.998300430033e+01
3.000487234693e+01
2.999655999711e+01
3.010126838138e+01
3.067505425944e+01
2.999558354064e+01
2.998270761318e+01
3.000384532032e+01
3.000417452739e+01
2.998191721330e+01
2.999723934790e+01
2.997816646197e+01
2.999658325177e+01
2.997865208185e+01
2.999363935587e+01
2.997990646274e+01
2.999901826764e+01
2.997775201289e+01
2.999722187748e+01
3.477603219163e+01
3.000506815660e+01
3.000474447820e+01
2.999889381261e+01
3.001054017924e+01
3.168897601935e+01
3.169184785983e+01
3.170035363937e+01
3.167923425574e+01
3.000005973250e+01
3.007920131122e+01
3.062945957987e+01
3.064199002508e+01
3.006339211484e+01
3.000067172357e+01
2.999720151728e+01
2.998332033374e+01
3.000495646181e+01
3.000021968386e+01
3.007625836880e+01
3.061916145978e+01
2.999580256576e+01
2.998469169031e+01
3.000443323699e+01
2.999691793069e+01
3.009060376046e+01
3.060214967358e+01
2.999598131770e+01
2.998443615271e+01
3.000349722189e+01
3.000379498204e+01
2.998371809176e+01
2.999747210433e+01
2.998065107895e+01
2.999681391484e+01
2.998108827876e+01
2.999418118002e+01
2.998222959621e+01
2.999899593900e+01
2.998030409216e+01
2.999738739258e+01
3.406282790102e+01
3.000466647580e+01
3.000436660012e+01
2.999897328843e+01
3.000971197042e+01
3.151427271648e+01
3.151757775591e+01
3.152749661118e+01
3.150265682762e+01
2.999998385775e+01
3.007224680884e+01
3.057332964510e+01
3.058506560051e+01
3.005782723540e+01
3.000050751167e+01
2.999742272356e+01
2.998470672712e+01
3.000458590664e+01
3.000013072793e+01
3.006953923654e+01
3.056403961715e+01
2.999613929409e+01
2.998596599811e+01
3.000410629127e+01
2.999717482514e+01
3.008259022529e+01
3.054805124254e+01
2.999630311531e+01
2.998574117621e+01
3.000323636392e+01
3.000351234835e+01
2.998507598440e+01
2.999767084551e+01
2.998238608921e+01
2.999697296567e+01
2.998278492767e+01
2.999457456465e+01
2.998383905785e+01
2.999896929971e+01
2.998208578109e+01
2.999750224167e+01
3.353868707267e+01
3.000437205929e+01
3.000408948943e+01
2.999902843260e+01
3.000910790895e+01
3.140114307095e+01
3.140453092737e+01
3.141499187522e+01
3.138872337679e+01
2.999995578163e+01
3.006734759068e+01
3.053503680278e+01
3.054616936991e+01
3.005387228149e+01
3.000043733257e+01
2.999763555414e+01
2.998571354618e+01
3.000433631936e+01
3.000009285482e+01
3.006479994405e+01
3.052640950507e+01
2.999643190329e+01
2.998689469924e+01
3.000388641461e+01
2.999735215268e+01
3.007697874950e+01
3.051120818391e+01
2.999658364331e+01
2.998668824466e+01
3.000306286464e+01
3.000332511362e+01
2.998606079688e+01
2.999786660855e+01
2.998338415964e+01
2.999709444646e+01
2.998375973585e+01
2.999485955895e+01
2.998475821456e+01
2.999896135642e+01
2.998311895628e+01
2.999759579397e+01
3.318789904119e+01
3.000417188839e+01
3.000390099998e+01
2.999905766907e+01
3.000870448776e+01
3.134552751099e+01
3.134863232024e+01
3.135891425406e+01
3.133309215115e+01
2.999997196691e+01
3.006434591622e+01
3.051342601599e+01
3.052414756609e+01
3.005139463049e+01
3.000045770959e+01
2.999784490659e+01
2.998636930065e+01
3.000419546257e+01
3.000010170008e+01
3.006188694841e+01
3.050513614692e+01
2.999668731819e+01
2.998750340563e+01
3.000376257179e+01
2.999745124766e+01
3.007359287554e+01
3.049048223762e+01
2.999682861181e+01
2.998730295945e+01
3.000296762764e+01
3.000322355939e+01
2.998669981781e+01
2.999806284157e+01
2.998366193101e+01
2.999717930382e+01
2.998403067716e+01
2.999504178757e+01
2.998500653119e+01
2.999896761577e+01
2.998342442985e+01
2.999766715893e+01
3.301058484190e+01
3.000407396654e+01
3.000380520794e+01
2.999905696479e+01
3.000852268614e+01
3.134898386253e+01
3.135152774165e+01
3.135998090542e+01
3.133912716093e+01
3.000001296458e+01
3.006320456749e+01
3.050767803630e+01
3.051804106024e+01
3.005039774076e+01
3.000053327956e+01
2.999803559507e+01
2.998666421847e+01
3.000418061413e+01
3.000014327335e+01
3.006076492496e+01
3.049943821065e+01
2.999689423914e+01
2.998778693864e+01
3.000374947576e+01
2.999747606406e+01
3.007235164515e+01
3.048529578186e+01
2.999703457438e+01
2.998758737614e+01
3.000295936288e+01
3.000321859827e+01
2.998698931921e+01
2.999825310627e+01
2.998331315689e+01
2.999719997696e+01
2.998367245444e+01
2.999509974491e+01
2.998462925210e+01
2.999897204461e+01
2.998306895322e+01
2.999769778251e+01
3.295893381436e+01
3.000396411241e+01
3.000373379662e+01
2.999906415782e+01
3.000826830467e+01
3.138951774316e+01
3.138777602553e+01
3.140634562953e+01
3.135648183067e+01
3.000032340016e+01
3.006391378834e+01
3.052649192066e+01
3.053868255266e+01
3.005026177601e+01
3.000115226890e+01
2.999856636498e+01
2.998686034664e+01
3.000416011625e+01
3.000040165665e+01
3.006131700551e+01
3.051779961974e+01
2.999736463784e+01
2.998794314347e+01
3.000374335762e+01
2.999737553248e+01
3.007377503792e+01
3.050124794291e+01
2.999740502371e+01
2.998765423114e+01
3.000301104787e+01
3.000326029390e+01
2.998711594334e+01
2.999868100618e+01
2.998068522509e+01
2.999742838218e+01
2.998128817439e+01
2.999525586534e+01
2.998262177204e+01
2.999908286423e+01
2.998076173707e+01
2.999784708865e+01
3.395149862626e+01
3.000395181777e+01
3.000372725002e+01
2.999906424337e+01
3.000823946526e+01
3.139885584190e+01
3.139651699317e+01
3.141655936430e+01
3.136246939930e+01
3.000037494197e+01
3.006413432022e+01
3.053035689371e+01
3.054282850467e+01
3.005033220758e+01
3.000125324840e+01
2.999864701666e+01
2.998687092699e+01
3.000416170883e+01
3.000044511020e+01
3.006151127265e+01
3.052156829418e+01
2.999743413356e+01
2.998794950333e+01
3.000374631483e+01
2.999735627732e+01
3.007412351163e+01
3.050463836950e+01
2.999745927531e+01
2.998764583144e+01
3.000302167738e+01
3.000326986959e+01
2.998711589349e+01
2.999874605692e+01
2.998024476809e+01
2.999746411928e+01
2.998088573393e+01
2.999527655796e+01
2.998227923104e+01
2.999910430466e+01
2.998037024980e+01
2.999787204641e+01
3.413812542329e+01
3.000387711606e+01
3.000368417065e+01
2.999908489844e+01
3.000805013948e+01
3.140141414891e+01
3.139657230393e+01
3.142550147913e+01
3.134615091847e+01
3.000057363482e+01
3.006445035014e+01
3.054033904463e+01
3.055427326374e+01
3.005012916904e+01
3.000164491971e+01
2.999894148796e+01
2.998701575517e+01
3.000409471940e+01
3.000060105104e+01
3.006173943079e+01
3.053129055816e+01
2.999768873696e+01
2.998805607540e+01
3.000369572747e+01
2.999730309715e+01
3.007489212351e+01
3.051237722208e+01
2.999763753327e+01
2.998768785982e+01
3.000302076120e+01
3.000325571091e+01
2.998720721936e+01
2.999896002979e+01
2.997878270341e+01
2.999765512877e+01
2.997960705588e+01
2.999541994142e+01
2.998128420780e+01
2.999919237354e+01
2.997916083231e+01
2.999799073883e+01
3.481662515729e+01
3.000376035555e+01
3.000360174580e+01
2.999911707080e+01
3.000776943921e+01
3.139567083314e+01
3.138796602382e+01
3.142540010114e+01
3.132172372508e+01
3.000077758570e+01
3.006416641407e+01
3.054542424700e+01
3.056069114150e+01
3.004944344572e+01
3.000204132612e+01
2.999924922537e+01
2.998729333370e+01
3.000397750749e+01
3.000076194438e+01
3.006139081391e+01
3.053620554774e+01
2.999796922996e+01
2.998828281094e+01
3.000359976052e+01
2.999727542913e+01
3.007498041135e+01
3.051552232015e+01
2.999784083833e+01
2.998785208743e+01
3.000298558577e+01
3.000320356675e+01
2.998742826808e+01
2.999918571998e+01
2.997750487996e+01
2.999788692382e+01
2.997850847787e+01
2.999562418369e+01
2.998045457544e+01
2.999930141865e+01
2.997813228752e+01
2.999814262243e+01
3.553197212058e+01
3.000364888320e+01
3.000361675539e+01
2.999919462639e+01
3.000736564419e+01
3.137654971191e+01
3.136058104401e+01
3.144002843350e+01
3.121789768547e+01
3.000149347231e+01
3.006754824125e+01
3.059692191262e+01
3.061912825556e+01
3.005042453015e+01
3.000347202197e+01
3.000012162513e+01
2.998732358998e+01
3.000376552810e+01
3.000129667080e+01
3.006436550783e+01
3.058654649133e+01
2.999864047188e+01
2.998818050384e+01
3.000345011980e+01
2.999700527877e+01
3.008038353220e+01
3.055628650329e+01
2.999819398331e+01
2.998748155420e+01
3.000302106835e+01
3.000318182283e+01
2.998724674339e+01
2.999972202052e+01
2.997207108640e+01
2.999858002330e+01
2.997385770208e+01
2.999605351794e+01
2.997703959772e+01
2.999960410829e+01
2.997378485421e+01
2.999852462213e+01
3.817263462489e+01
3.000258294164e+01
3.000236862720e+01
2.999927382672e+01
3.000555779674e+01
3.121171932535e+01
3.121005651245e+01
3.118931269027e+01
3.124683321376e+01
3.000033966979e+01
3.004304709312e+01
3.036814546938e+01
3.037182628284e+01
3.003404561671e+01
3.000095721918e+01
2.999958969656e+01
2.999127018912e+01
3.000314337359e+01
3.000046955812e+01
3.004138314144e+01
3.036154656814e+01
2.999881681718e+01
2.999211378792e+01
3.000281314668e+01
2.999817471525e+01
3.004966478066e+01
3.035685511102e+01
2.999898969507e+01
2.999198232960e+01
3.000221087326e+01
3.000243913970e+01
2.999152260518e+01
2.999982365385e+01
2.998476649952e+01
2.999802022089e+01
2.998485403734e+01
2.999657754978e+01
2.998522915140e+01
2.999939105168e+01
2.998426766303e+01
2.999852029016e+01
3.234062254389e+01
3.000129736578e+01
3.000123532967e+01
2.999971934029e+01
3.000268115257e+01
3.032858155756e+01
3.033054094129e+01
3.034572870075e+01
3.030522842500e+01
2.999999792724e+01
3.002009645694e+01
3.015907774470e+01
3.016405122944e+01
3.001591423017e+01
3.000016703344e+01
2.999930209916e+01
2.999577604417e+01
3.000125157416e+01
3.000000718076e+01
3.001927671148e+01
3.015658733239e+01
2.999891890573e+01
2.999609814705e+01
3.000112506629e+01
2.999920916768e+01
3.002304731847e+01
3.014954096435e+01
2.999890274023e+01
2.999600251166e+01
3.000090164970e+01
3.000097021136e+01
2.999584329157e+01
2.999930812359e+01
2.999501426067e+01
2.999919213174e+01
2.999525478028e+01
2.999851770880e+01
2.999578714352e+01
2.999968017156e+01
2.999516761508e+01
2.999929075875e+01
3.026587487277e+01
3.000041465155e+01
3.000038099336e+01
2.999994641227e+01
3.000083240936e+01
3.003201175937e+01
3.003366329870e+01
3.003491067972e+01
3.003231642139e+01
2.999978060848e+01
3.000472264088e+01
3.002548320886e+01
3.002615825279e+01
3.000415818818e+01
2.999962160972e+01
2.999933446168e+01
2.999877439315e+01
3.000024435161e+01
2.999981372138e+01
3.000459039166e+01
3.002537997072e+01
2.999928027814e+01
2.999885779375e+01
3.000021134101e+01
2.999987974134e+01
3.000501843150e+01
3.002448673121e+01
2.999932362550e+01
2.999888761362e+01
3.000014767978e+01
3.000015718994e+01
2.999882852038e+01
2.999938513553e+01
3.000101745460e+01
2.999972406511e+01
3.000095838447e+01
2.999960041138e+01
3.000089283725e+01
2.999987720906e+01
3.000089654163e+01
2.999975650163e+01
3.004774806838e+01
3.000000191010e+01
3.000000199888e+01
3.000001055215e+01
2.999999205612e+01
2.999712773793e+01
2.999683539386e+01
2.999651072578e+01
2.999731610157e+01
2.999998781177e+01
2.999995380432e+01
2.999794931933e+01
2.999788216529e+01
3.000000769440e+01
2.999997169412e+01
2.999992427663e+01
2.999999548924e+01
2.999995953631e+01
2.999999056506e+01
2.999996672682e+01
2.999802059372e+01
2.999993181018e+01
2.999998984593e+01
2.999996182219e+01
3.000001455754e+01
2.999991598160e+01
2.999816190937e+01
2.999993504005e+01
2.999999378096e+01
2.999996989443e+01
2.999996542134e+01
2.999999722892e+01
2.999992731989e+01
3.000035127632e+01
3.000003193168e+01
3.000034238705e+01
3.000003652784e+01
3.000032054119e+01
3.000002584447e+01
3.000033448451e+01
3.000002398390e+01
2.999631481367e+01
2.999999205043e+01
2.999999272455e+01
3.000000013064e+01
2.999998510828e+01
2.999948266144e+01
2.999949431835e+01
2.999950713421e+01
2.999946722212e+01
3.000000533880e+01
2.999992218187e+01
2.999971215919e+01
2.999970564546e+01
2.999992857114e+01
3.000000934772e+01
3.000001733755e+01
3.000002267343e+01
2.999999833224e+01
3.000000446329e+01
2.999992380308e+01
2.999970699394e+01
3.000001774322e+01
3.000002158304e+01
2.999999870083e+01
3.000000132170e+01
2.999991982310e+01
2.999970932707e+01
3.000001661443e+01
3.000002061195e+01
2.999999925174e+01
2.999999942230e+01
3.000002145660e+01
3.000001609724e+01
2.999995776626e+01
3.000000381023e+01
2.999995961140e+01
3.000000563187e+01
2.999996283541e+01
3.000000168910e+01
2.999996156017e+01
3.000000387580e+01
2.999927597567e+01
3.000000211510e+01
3.000000193230e+01
2.999999993848e+01
3.000000398929e+01
3.000014441699e+01
3.000014161503e+01
3.000013845698e+01
3.000014855999e+01
2.999999858492e+01
3.000002059249e+01
3.000007965563e+01
3.000008147684e+01
3.000001879993e+01
2.999999754827e+01
2.999999557153e+01
2.999999399226e+01
3.000000055207e+01
2.999999881535e+01
3.000002012869e+01
3.000008094202e+01
2.999999544942e+01
2.999999429641e+01
3.000000044932e+01
2.999999961438e+01