# vtk DataFile Version 3.0
Unstructured Grid from OpenGeoSys
ASCII
DATASET UNSTRUCTURED_GRID
FIELD TimesAndCycles 2
TIME 1 1 double
3.600000000000e+03
CYLCE 1 1 long
1
POINTS 1394 double
0.000000000000e+00 0.000000000000e+00 0.000000000000e+00
5.000000000000e+00 0.000000000000e+00 0.000000000000e+00
5.000000000000e+00 5.000000000000e+00 0.000000000000e+00
0.000000000000e+00 5.000000000000e+00 0.000000000000e+00
2.244234909000e+00 2.244234909000e+00 0.000000000000e+00
2.755765091000e+00 2.244234909000e+00 0.000000000000e+00
2.755765091000e+00 2.755765091000e+00 0.000000000000e+00
2.244234909000e+00 2.755765091000e+00 0.000000000000e+00
7.141316008320e-01 7.141316008320e-01 0.000000000000e+00
1.314642334730e+00 1.314642334730e+00 0.000000000000e+00
1.819609643610e+00 1.819609643610e+00 0.000000000000e+00
1.819609643610e+00 3.180390356390e+00 0.000000000000e+00
1.314642334740e+00 3.685357665260e+00 0.000000000000e+00
7.141316008360e-01 4.285868399160e+00 0.000000000000e+00
0.000000000000e+00 3.750000000000e+00 0.000000000000e+00
0.000000000000e+00 2.500000000000e+00 0.000000000000e+00
0.000000000000e+00 1.250000000000e+00 0.000000000000e+00
4.285868399170e+00 7.141316008320e-01 0.000000000000e+00
3.685357665270e+00 1.314642334730e+00 0.000000000000e+00
3.180390356390e+00 1.819609643610e+00 0.000000000000e+00
1.250000000000e+00 0.000000000000e+00 0.000000000000e+00
2.500000000000e+00 0.000000000000e+00 0.000000000000e+00
3.750000000000e+00 0.000000000000e+00 0.000000000000e+00
4.285868399170e+00 4.285868399170e+00 0.000000000000e+00
3.685357665270e+00 3.685357665270e+00 0.000000000000e+00
3.180390356390e+00 3.180390356390e+00 0.000000000000e+00
5.000000000000e+00 1.250000000000e+00 0.000000000000e+00
5.000000000000e+00 2.500000000000e+00 0.000000000000e+00
5.000000000000e+00 3.750000000000e+00 0.000000000000e+00
3.750000000000e+00 5.000000000000e+00 0.000000000000e+00
2.500000000000e+00 5.000000000000e+00 0.000000000000e+00
1.250000000000e+00 5.000000000000e+00 0.000000000000e+00
9.560744151940e-01 2.677827143250e+00 0.000000000000e+00
6.659597640160e-01 1.438876720610e+00 0.000000000000e+00
2.309219871940e+00 9.522638293400e-01 0.000000000000e+00
3.458157207860e+00 6.354750772000e-01 0.000000000000e+00
4.043925584810e+00 2.322172856750e+00 0.000000000000e+00
4.334040235980e+00 3.561123279390e+00 0.000000000000e+00
2.318530875810e+00 4.048536535600e+00 0.000000000000e+00
3.552396921680e+00 4.370927842320e+00 0.000000000000e+00
2.500000000000e+00 2.500000000000e+00 0.000000000000e+00
0.000000000000e+00 0.000000000000e+00 -5.000000000000e-01
5.000000000000e+00 0.000000000000e+00 -5.000000000000e-01
5.000000000000e+00 5.000000000000e+00 -5.000000000000e-01
0.000000000000e+00 5.000000000000e+00 -5.000000000000e-01
2.244234909000e+00 2.244234909000e+00 -5.000000000000e-01
2.755765091000e+00 2.244234909000e+00 -5.000000000000e-01
2.755765091000e+00 2.755765091000e+00 -5.000000000000e-01
2.244234909000e+00 2.755765091000e+00 -5.000000000000e-01
7.141316008320e-01 7.141316008320e-01 -5.000000000000e-01
1.314642334730e+00 1.314642334730e+00 -5.000000000000e-01
1.819609643610e+00 1.819609643610e+00 -5.000000000000e-01
1.819609643610e+00 3.180390356390e+00 -5.000000000000e-01
1.314642334740e+00 3.685357665260e+00 -5.000000000000e-01
7.141316008360e-01 4.285868399160e+00 -5.000000000000e-01
0.000000000000e+00 3.750000000000e+00 -5.000000000000e-01
0.000000000000e+00 2.500000000000e+00 -5.000000000000e-01
0.000000000000e+00 1.250000000000e+00 -5.000000000000e-01
4.285868399170e+00 7.141316008320e-01 -5.000000000000e-01
3.685357665270e+00 1.314642334730e+00 -5.000000000000e-01
3.180390356390e+00 1.819609643610e+00 -5.000000000000e-01
1.250000000000e+00 0.000000000000e+00 -5.000000000000e-01
2.500000000000e+00 0.000000000000e+00 -5.000000000000e-01
3.750000000000e+00 0.000000000000e+00 -5.000000000000e-01
4.285868399170e+00 4.285868399170e+00 -5.000000000000e-01
3.685357665270e+00 3.685357665270e+00 -5.000000000000e-01
3.180390356390e+00 3.180390356390e+00 -5.000000000000e-01
5.000000000000e+00 1.250000000000e+00 -5.000000000000e-01
5.000000000000e+00 2.500000000000e+00 -5.000000000000e-01
5.000000000000e+00 3.750000000000e+00 -5.000000000000e-01
3.750000000000e+00 5.000000000000e+00 -5.000000000000e-01
2.500000000000e+00 5.000000000000e+00 -5.000000000000e-01
1.250000000000e+00 5.000000000000e+00 -5.000000000000e-01
9.560744151940e-01 2.677827143250e+00 -5.000000000000e-01
6.659597640160e-01 1.438876720610e+00 -5.000000000000e-01
2.309219871940e+00 9.522638293400e-01 -5.000000000000e-01
3.458157207860e+00 6.354750772000e-01 -5.000000000000e-01
4.043925584810e+00 2.322172856750e+00 -5.000000000000e-01
4.334040235980e+00 3.561123279390e+00 -5.000000000000e-01
2.318530875810e+00 4.048536535600e+00 -5.000000000000e-01
3.552396921680e+00 4.370927842320e+00 -5.000000000000e-01
2.500000000000e+00 2.500000000000e+00 -5.000000000000e-01
0.000000000000e+00 0.000000000000e+00 -1.000000000000e+00
5.000000000000e+00 0.000000000000e+00 -1.000000000000e+00
5.000000000000e+00 5.000000000000e+00 -1.000000000000e+00
0.000000000000e+00 5.000000000000e+00 -1.000000000000e+00
2.244234909000e+00 2.244234909000e+00 -1.000000000000e+00
2.755765091000e+00 2.244234909000e+00 -1.000000000000e+00
2.755765091000e+00 2.755765091000e+00 -1.000000000000e+00
2.244234909000e+00 2.755765091000e+00 -1.000000000000e+00
7.141316008320e-01 7.141316008320e-01 -1.000000000000e+00
1.314642334730e+00 1.314642334730e+00 -1.000000000000e+00
1.819609643610e+00 1.819609643610e+00 -1.000000000000e+00
1.819609643610e+00 3.180390356390e+00 -1.000000000000e+00
1.314642334740e+00 3.685357665260e+00 -1.000000000000e+00
7.141316008360e-01 4.285868399160e+00 -1.000000000000e+00
0.000000000000e+00 3.750000000000e+00 -1.000000000000e+00
0.000000000000e+00 2.500000000000e+00 -1.000000000000e+00
0.000000000000e+00 1.250000000000e+00 -1.000000000000e+00
4.285868399170e+00 7.141316008320e-01 -1.000000000000e+00
3.685357665270e+00 1.314642334730e+00 -1.000000000000e+00
3.180390356390e+00 1.819609643610e+00 -1.000000000000e+00
1.250000000000e+00 0.000000000000e+00 -1.000000000000e+00
2.500000000000e+00 0.000000000000e+00 -1.000000000000e+00
3.750000000000e+00 0.000000000000e+00 -1.000000000000e+00
4.285868399170e+00 4.285868399170e+00 -1.000000000000e+00
3.685357665270e+00 3.685357665270e+00 -1.000000000000e+00
3.180390356390e+00 3.180390356390e+00 -1.000000000000e+00
5.000000000000e+00 1.250000000000e+00 -1.000000000000e+00
5.000000000000e+00 2.500000000000e+00 -1.000000000000e+00
5.000000000000e+00 3.750000000000e+00 -1.000000000000e+00
3.750000000000e+00 5.000000000000e+00 -1.000000000000e+00
2.500000000000e+00 5.000000000000e+00 -1.000000000000e+00
1.250000000000e+00 5.000000000000e+00 -1.000000000000e+00
9.560744151940e-01 2.677827143250e+00 -1.000000000000e+00
6.659597640160e-01 1.438876720610e+00 -1.000000000000e+00
2.309219871940e+00 9.522638293400e-01 -1.000000000000e+00
3.458157207860e+00 6.354750772000e-01 -1.000000000000e+00
4.043925584810e+00 2.322172856750e+00 -1.000000000000e+00
4.334040235980e+00 3.561123279390e+00 -1.000000000000e+00
2.318530875810e+00 4.048536535600e+00 -1.000000000000e+00
3.552396921680e+00 4.370927842320e+00 -1.000000000000e+00
2.500000000000e+00 2.500000000000e+00 -1.000000000000e+00
0.000000000000e+00 0.000000000000e+00 -3.000000000000e+00
5.000000000000e+00 0.000000000000e+00 -3.000000000000e+00
5.000000000000e+00 5.000000000000e+00 -3.000000000000e+00
0.000000000000e+00 5.000000000000e+00 -3.000000000000e+00
2.244234909000e+00 2.244234909000e+00 -3.000000000000e+00
2.755765091000e+00 2.244234909000e+00 -3.000000000000e+00
2.755765091000e+00 2.755765091000e+00 -3.000000000000e+00
2.244234909000e+00 2.755765091000e+00 -3.000000000000e+00
7.141316008320e-01 7.141316008320e-01 -3.000000000000e+00
1.314642334730e+00 1.314642334730e+00 -3.000000000000e+00
1.819609643610e+00 1.819609643610e+00 -3.000000000000e+00
1.819609643610e+00 3.180390356390e+00 -3.000000000000e+00
1.314642334740e+00 3.685357665260e+00 -3.000000000000e+00
7.141316008360e-01 4.285868399160e+00 -3.000000000000e+00
0.000000000000e+00 3.750000000000e+00 -3.000000000000e+00
0.000000000000e+00 2.500000000000e+00 -3.000000000000e+00
0.000000000000e+00 1.250000000000e+00 -3.000000000000e+00
4.285868399170e+00 7.141316008320e-01 -3.000000000000e+00
3.685357665270e+00 1.314642334730e+00 -3.000000000000e+00
3.180390356390e+00 1.819609643610e+00 -3.000000000000e+00
1.250000000000e+00 0.000000000000e+00 -3.000000000000e+00
2.500000000000e+00 0.000000000000e+00 -3.000000000000e+00
3.750000000000e+00 0.000000000000e+00 -3.000000000000e+00
4.285868399170e+00 4.285868399170e+00 -3.000000000000e+00
3.685357665270e+00 3.685357665270e+00 -3.000000000000e+00
3.180390356390e+00 3.180390356390e+00 -3.000000000000e+00
5.000000000000e+00 1.250000000000e+00 -3.000000000000e+00
5.000000000000e+00 2.500000000000e+00 -3.000000000000e+00
5.000000000000e+00 3.750000000000e+00 -3.000000000000e+00
3.750000000000e+00 5.000000000000e+00 -3.000000000000e+00
2.500000000000e+00 5.000000000000e+00 -3.000000000000e+00
1.250000000000e+00 5.000000000000e+00 -3.000000000000e+00
9.560744151940e-01 2.677827143250e+00 -3.000000000000e+00
6.659597640160e-01 1.438876720610e+00 -3.000000000000e+00
2.309219871940e+00 9.522638293400e-01 -3.000000000000e+00
3.458157207860e+00 6.354750772000e-01 -3.000000000000e+00
4.043925584810e+00 2.322172856750e+00 -3.000000000000e+00
4.334040235980e+00 3.561123279390e+00 -3.000000000000e+00
2.318530875810e+00 4.048536535600e+00 -3.000000000000e+00
3.552396921680e+00 4.370927842320e+00 -3.000000000000e+00
2.500000000000e+00 2.500000000000e+00 -3.000000000000e+00
0.000000000000e+00 0.000000000000e+00 -5.000000000000e+00
5.000000000000e+00 0.000000000000e+00 -5.000000000000e+00
5.000000000000e+00 5.000000000000e+00 -5.000000000000e+00
0.000000000000e+00 5.000000000000e+00 -5.000000000000e+00
2.244234909000e+00 2.244234909000e+00 -5.000000000000e+00
[...]
POINT_DATA 1394
SCALARS TEMPERATURE1 double 1
LOOKUP_TABLE default
1.000000000000e+01
1.000000000000e+01
1.000000000000e+01
1.000000000000e+01
1.000000000000e+01
1.000000000000e+01
1.000000000000e+01
1.000000000000e+01
1.000000000000e+01
1.000000000000e+01
1.000000000000e+01
1.000000000000e+01
1.000000000000e+01
1.000000000000e+01
1.000000000000e+01
1.000000000000e+01
1.000000000000e+01
1.000000000000e+01
1.000000000000e+01
1.000000000000e+01
1.000000000000e+01
1.000000000000e+01
1.000000000000e+01
1.000000000000e+01
1.000000000000e+01
1.000000000000e+01
1.000000000000e+01
1.000000000000e+01
1.000000000000e+01
1.000000000000e+01
1.000000000000e+01
1.000000000000e+01
1.000000000000e+01
1.000000000000e+01
1.000000000000e+01
1.000000000000e+01
1.000000000000e+01
1.000000000000e+01
1.000000000000e+01
1.000000000000e+01
1.000000000000e+01
1.664222555649e+01
1.664299713961e+01
1.664612489584e+01
1.664253408045e+01
1.554458702001e+01
1.553800449779e+01
1.550410417749e+01
1.559362660099e+01
1.655722666689e+01
1.631551981285e+01
1.587063127743e+01
1.585645925322e+01
1.632770152264e+01
1.655698385403e+01
1.656788040955e+01
1.646859013098e+01
1.654613958990e+01
1.655763331369e+01
1.631659373953e+01
1.587301789560e+01
1.656770033271e+01
1.646793502236e+01
1.654844571803e+01
1.656188189636e+01
1.630322841293e+01
1.588813110170e+01
1.656881896684e+01
1.646815675839e+01
1.654603563239e+01
1.654664225750e+01
1.646830358336e+01
1.656784918582e+01
1.632210328320e+01
1.647578375861e+01
1.632301633899e+01
1.647292980877e+01
1.632157438885e+01
1.647259929397e+01
1.632391896347e+01
1.647859348503e+01
1.580368798055e+01
2.259489506718e+01
2.259553555792e+01
2.260041492390e+01
2.259709750280e+01
1.877889590710e+01
1.878672916993e+01
1.883299632438e+01
1.870285034173e+01
2.243546644261e+01
2.187239499468e+01
2.074041033453e+01
2.072335952452e+01
2.190059652292e+01
2.243611806933e+01
2.248205975071e+01
2.229376513157e+01
2.242683988974e+01
2.243519029748e+01
2.187509065644e+01
2.074757542368e+01
2.248030885265e+01
2.229246616777e+01
2.243199455374e+01
2.244482966598e+01
2.184412939783e+01
2.075793671479e+01
2.248209596508e+01
2.229328226978e+01
2.242549223719e+01
2.242682041062e+01
2.229282171714e+01
2.248153632220e+01
2.192351283491e+01
2.227194505607e+01
2.192699754728e+01
2.226911764604e+01
2.192737334507e+01
2.226345949132e+01
2.193112697066e+01
2.227814674733e+01
1.571063655858e+01
2.532469418416e+01
2.532507379586e+01
2.532991765201e+01
2.532870687667e+01
2.100428484660e+01
2.101685823693e+01
2.102142701650e+01
2.100756653414e+01
2.512942784465e+01
2.444720203080e+01
2.307812290776e+01
2.305007829578e+01
2.448214207702e+01
2.512962159540e+01
2.518614035596e+01
2.495738868430e+01
2.512047293977e+01
2.512928050389e+01
2.445067485139e+01
2.308658768136e+01
2.518394365761e+01
2.495599543359e+01
2.512668358199e+01
2.514124078397e+01
2.441230847374e+01
2.310955764767e+01
2.518647435637e+01
2.495725079450e+01
2.511838331990e+01
2.511992993549e+01
2.495640778453e+01
2.518595102710e+01
2.450882875786e+01
2.493042903072e+01
2.451237276848e+01
2.492718545717e+01
2.451163139459e+01
2.492079761248e+01
2.451689788843e+01
2.493843112320e+01
1.672010577580e+01
2.666502556352e+01
2.666546597259e+01
2.667033261020e+01
2.666872639245e+01
2.251518272465e+01
2.252785934915e+01
2.251096997655e+01
2.255755614326e+01
2.647260896818e+01
2.581235737101e+01
2.446356972343e+01
2.443285546529e+01
2.584735315666e+01
2.647224330745e+01
2.652471123530e+01
2.630113827075e+01
2.646237321820e+01
2.647269173165e+01
2.581587124821e+01
2.447264884655e+01
2.652290288434e+01
2.629976325886e+01
2.646840583199e+01
2.648466678347e+01
2.577747959131e+01
2.450001177746e+01
2.652552438463e+01
2.630101662286e+01
2.646040354302e+01
2.646186324868e+01
2.630022780439e+01
2.652467622115e+01
2.587533511991e+01
2.627856230891e+01
2.587838142552e+01
2.627531385714e+01
2.587683522112e+01
2.626947111074e+01
2.588242410603e+01
2.628636610038e+01
1.773676541175e+01
2.717586847963e+01
2.717632360435e+01
2.718096359158e+01
2.717891856730e+01
2.344587553017e+01
2.345979979426e+01
2.342125213124e+01
2.352920396320e+01
2.700097416814e+01
2.640835258440e+01
2.516299780711e+01
2.513126226407e+01
2.644136626198e+01
2.700005769670e+01
2.704523874295e+01
2.684400023385e+01
2.699046126049e+01
2.700126268594e+01
2.641176215502e+01
2.517215714178e+01
2.704395831769e+01
2.684273154027e+01
2.699588054061e+01
2.701247268004e+01
2.637567822377e+01
2.520252247563e+01
2.704648560214e+01
2.684391390971e+01
2.698873750228e+01
2.699001233427e+01
2.684322408301e+01
2.704536627227e+01
2.647103065474e+01
2.682635794100e+01
2.647332196547e+01
2.682347115646e+01
2.647106280524e+01
2.681843453258e+01
2.647663985295e+01
2.683342330361e+01
1.852155559460e+01
2.731502510149e+01
2.731547144743e+01
2.731976091511e+01
2.731785238464e+01
2.409274889594e+01
2.410438179285e+01
2.403586319857e+01
2.422721322345e+01
2.715155811792e+01
2.661176360770e+01
2.546902367801e+01
2.543519450055e+01
2.664273934924e+01
2.715023092560e+01
2.718937098811e+01
2.700259141272e+01
2.714063167484e+01
2.715207525230e+01
2.661496638170e+01
2.547783725712e+01
2.718846682565e+01
2.700146813794e+01
2.714556715122e+01
2.716257247066e+01
2.658112137207e+01
2.551270540716e+01
2.719100967091e+01
2.700262280195e+01
2.713902844975e+01
2.714018819413e+01
2.700197636178e+01
2.718970788990e+01
2.666892900452e+01
2.699019275712e+01
2.667052068637e+01
2.698736813878e+01
2.666745863502e+01
2.698332349131e+01
2.667312030126e+01
2.699681284609e+01
1.901953322101e+01
2.731700602299e+01
2.731743625603e+01
2.732218385819e+01
2.732020919799e+01
2.340067077016e+01
2.341471819704e+01
2.338783869674e+01
2.346299328026e+01
2.713787892841e+01
2.652281879682e+01
2.523753912664e+01
2.520665809486e+01
2.655656068651e+01
2.713721869617e+01
2.718538378308e+01
2.697846882354e+01
2.712786515533e+01
2.713804901895e+01
2.652629982168e+01
2.524672363562e+01
2.718389825226e+01
2.697715049105e+01
2.713348020259e+01
2.714948934865e+01
2.648942263700e+01
2.527530651378e+01
2.718641469512e+01
2.697835527396e+01
2.712606396302e+01
2.712739545499e+01
2.697763110342e+01
2.718542634501e+01
2.658742948563e+01
2.695791741024e+01
2.659002667021e+01
2.695504321708e+01
2.658815022830e+01
2.694954155001e+01
2.659366547248e+01
2.696518829080e+01
1.859008860128e+01
2.744349437782e+01
2.744394299478e+01
2.744826974460e+01
2.744620121028e+01
2.404867952502e+01
2.406216904265e+01
2.401644168002e+01
2.414467595184e+01
2.728253613173e+01
2.674321443807e+01
2.559472852022e+01
2.556399584697e+01
2.677397727667e+01
2.728138944819e+01
2.732133052518e+01
2.713717335558e+01
2.727216657737e+01
2.728290939203e+01
2.674642913682e+01
2.560356668254e+01
2.732031857149e+01
2.713599083738e+01
2.727710764434e+01
2.729338535865e+01
2.671285644572e+01
2.563385534041e+01
2.732271185482e+01
2.713709857617e+01
2.727064097027e+01
2.727178028786e+01
2.713649548164e+01
2.732152781132e+01
2.680257798385e+01
2.712295200070e+01
2.680444661161e+01
2.712026600495e+01
2.680195083184e+01
2.711585594603e+01
2.680730766407e+01
2.712941198562e+01
1.925668130345e+01
2.753633067072e+01
2.753681009416e+01
2.754092345734e+01
2.753881945807e+01
2.435871534374e+01
2.437248672799e+01
2.432412293032e+01
2.446000364059e+01
2.738343366072e+01
2.688019349750e+01
2.580078753768e+01
2.577107482814e+01
2.690934761857e+01
2.738207414883e+01
2.741785745249e+01
2.724380020102e+01
2.737267216364e+01
2.738388205180e+01
2.688325927503e+01
2.580933102578e+01
2.741704065057e+01
2.724266291636e+01
2.737730762231e+01
2.739390391937e+01
2.685144693461e+01
2.583901737186e+01
2.741934540508e+01
2.724369823569e+01
2.737131735593e+01
2.737235726162e+01
2.724318169555e+01
2.741809041300e+01
2.693597717540e+01
2.723313510474e+01
2.693758463213e+01
2.723044914583e+01
2.693492732568e+01
2.722660365240e+01
2.694012214232e+01
2.723917539844e+01
1.975134098547e+01
2.758256442062e+01
2.758308210911e+01
2.758707258549e+01
2.758502367952e+01
2.452435621692e+01
2.453764315535e+01
2.448894443656e+01
2.462567795261e+01
2.743170917657e+01
2.694370105851e+01
2.590223897503e+01
2.587325269454e+01
2.697191739307e+01
2.743026033545e+01
2.746383423727e+01
2.729236175707e+01
2.742041401984e+01
2.743220371657e+01
2.694664932926e+01
2.591047773547e+01
2.746308665854e+01
2.729124455576e+01
2.742493365752e+01
2.744201531418e+01
2.691581267988e+01
2.593953350693e+01
2.746536075596e+01
2.729223251549e+01
2.741915108573e+01
2.742015160970e+01
2.729177080685e+01
2.746407673005e+01
2.699559063299e+01
2.728429976689e+01
2.699711479311e+01
2.728146130876e+01
2.699439501140e+01
2.727801595277e+01
2.699949400240e+01
2.729017100715e+01
2.006124429328e+01
2.761958161779e+01
2.762012540553e+01
2.762403584490e+01
2.762204082894e+01
2.463618727171e+01
2.464901395848e+01
2.460087814159e+01
2.473592310142e+01
2.746967230193e+01
2.699037462535e+01
2.597347338382e+01
2.594507126133e+01
2.701795699606e+01
2.746819101030e+01
2.750045408676e+01
2.733011852679e+01
2.745802399260e+01
2.747019012060e+01
2.699323726191e+01
2.598146718951e+01
2.749973422579e+01
2.732901374918e+01
2.746247960352e+01
2.747986281098e+01
2.696305299819e+01
2.600993259515e+01
2.750198690180e+01
2.732996907575e+01
2.745681717950e+01
2.745779710308e+01
2.732954268442e+01
2.750069608246e+01
2.703935590017e+01
2.732370950677e+01
2.704085016476e+01
2.732075020224e+01
2.703812034075e+01
2.731756309345e+01
2.704314320310e+01
2.732948424017e+01
2.028733749429e+01
2.764711576085e+01
2.764767575288e+01
2.765153982649e+01
2.764959799499e+01
2.470539660922e+01
2.471774642723e+01
2.467057911844e+01
2.480276597807e+01
2.749729100442e+01
2.702156339956e+01
2.601861755886e+01
2.599064425376e+01
2.704875671255e+01
2.749582029387e+01
2.752748176122e+01
2.735714856176e+01
2.748543360453e+01
2.749781561515e+01
2.702436640564e+01
2.602641578014e+01
2.752675858273e+01
2.735605099835e+01
2.748986581933e+01
2.750740500687e+01
2.699457388566e+01
2.605438720994e+01
2.752899889415e+01
2.735698602816e+01
2.748425342206e+01
2.748522776262e+01
2.735657859442e+01
2.752771709842e+01
2.706842961132e+01
2.735164033265e+01
2.706993246234e+01
2.734858677315e+01
2.706722705938e+01
2.734554653782e+01
2.707219309300e+01
2.735737722176e+01
2.044406554074e+01
2.766316174635e+01
2.766372828477e+01
2.766758689254e+01
2.766569574064e+01
2.472114191722e+01
2.473302991896e+01
2.468766206629e+01
2.481463088621e+01
2.751230478451e+01
2.703388416595e+01
2.603225207981e+01
2.600457046059e+01
2.706097586353e+01
2.751089620908e+01
2.754279310609e+01
2.737100081476e+01
2.750039125730e+01
2.751281579486e+01
2.703665739722e+01
2.603990835764e+01
2.754202810192e+01
2.736990327763e+01
2.750485070974e+01
2.752239150228e+01
2.700694862732e+01
2.606742575869e+01
2.754426602512e+01
2.737083138938e+01
2.749920446598e+01
2.750019136300e+01
2.737042486513e+01
2.754301229345e+01
2.707951121709e+01
2.736553702388e+01
2.708107371707e+01
2.736241335818e+01
2.707844011007e+01
2.735939047349e+01
2.708336898860e+01
2.737130577093e+01
2.052126294349e+01
2.765354698074e+01
2.765411471893e+01
2.765804661573e+01
2.765621708353e+01
2.462670499652e+01
2.463776536649e+01
2.459694856047e+01
2.471084564072e+01
2.749848890626e+01
2.700368512082e+01
2.597915892723e+01
2.595168167550e+01
2.703119048727e+01
2.749724630433e+01
2.753092897837e+01
2.735364084480e+01
2.748663168236e+01
2.749895036595e+01
2.700646766202e+01
2.598674403377e+01
2.753003636935e+01
2.735252306313e+01
2.749123763572e+01
2.750866884043e+01
2.697626736575e+01
2.601362859964e+01
2.753229552990e+01
2.735346410418e+01
2.748538348541e+01
2.748642098797e+01
2.735303258251e+01
2.753110630816e+01
2.704896082563e+01
2.734696542563e+01
2.705071078469e+01
2.734374677601e+01
2.704825554814e+01
2.734053470392e+01
2.705317658359e+01
2.735291529051e+01
2.043476999800e+01
2.757090497391e+01
2.757148902169e+01
2.757567066449e+01
2.757401656262e+01
2.418627663145e+01
2.419718452267e+01
2.417434281466e+01
2.423740554685e+01
2.740139052010e+01
2.685111963146e+01
2.573983521397e+01
2.571312051782e+01
2.688034623887e+01
2.740056985999e+01
2.744002446189e+01
2.724437062451e+01
2.738954950301e+01
2.740169092011e+01
2.685401980703e+01
2.574732683405e+01
2.743873557711e+01
2.724316171050e+01
2.739466610966e+01
2.741203707078e+01
2.682183165388e+01
2.577174223982e+01
2.744106969689e+01
2.724414311280e+01
2.738811749474e+01
2.738930459735e+01
2.724363938268e+01
2.744005742838e+01
2.689700046401e+01
2.723391851507e+01
2.689937499424e+01
2.723039403268e+01
2.689749680015e+01
2.722652132712e+01
2.690242861912e+01
2.724045575352e+01
2.017704254983e+01
2.753797309110e+01
2.753856061377e+01
2.754282209313e+01
2.754121183939e+01
2.406191924630e+01
2.407229006260e+01
2.405233157752e+01
2.410714971367e+01
2.736408494018e+01
2.679769906009e+01
2.566002625320e+01
2.563320779472e+01
2.682748806060e+01
2.736336128910e+01
2.740441262573e+01
2.720330004408e+01
2.735221372847e+01
2.736435647900e+01
2.680062779031e+01
2.566758915740e+01
2.740302717982e+01
2.720206834254e+01
2.735747473190e+01
2.737490747749e+01
2.676779088047e+01
2.569181415304e+01
2.740539903401e+01
2.720307196630e+01
2.735072295932e+01
2.735195593960e+01
2.720254336461e+01
2.740442064425e+01
2.684389554583e+01
2.719188798222e+01
2.684641236663e+01
2.718827450959e+01
2.684462911927e+01
2.718423271002e+01
2.684960816039e+01
2.719860894088e+01
1.996466530995e+01
2.750282475347e+01
2.750343452181e+01
2.750784484443e+01
2.750621311998e+01
2.386131226936e+01
2.387186097783e+01
2.385941690908e+01
2.389311065856e+01
2.732244315488e+01
2.673236007410e+01
2.555481352737e+01
2.552823449611e+01
2.676299430365e+01
2.732185627834e+01
2.736513223221e+01
2.715595679319e+01
2.731039672814e+01
2.732265991114e+01
2.673534990339e+01
2.556244013023e+01
2.736360416090e+01
2.715467604941e+01
2.731587744237e+01
2.733353025411e+01
2.670155168877e+01
2.558572503391e+01
2.736601379287e+01
2.715569650111e+01
2.730884597758e+01
2.731014090729e+01
2.715514932238e+01
2.736508106191e+01
2.677920671747e+01
2.714330279152e+01
2.678197005749e+01
2.713953944181e+01
2.678039059576e+01
2.713524074758e+01
2.678540570786e+01
2.715026897188e+01
1.979892866092e+01
2.754178835984e+01
2.754237309068e+01
2.754685140846e+01
2.754571476920e+01
2.366944622275e+01
2.367952706151e+01
2.367599905487e+01
2.368434358066e+01
2.734951833929e+01
2.671755525728e+01
2.547794719624e+01
2.545139397861e+01
2.674946696271e+01
2.734919046584e+01
2.739669317565e+01
2.717271581013e+01
2.733750227938e+01
2.734964127413e+01
2.672060701193e+01
2.548550937596e+01
2.739483818206e+01
2.717137462266e+01
2.734336132392e+01
2.736105413955e+01
2.668531738038e+01
2.550780330766e+01
2.739734824573e+01
2.717246082492e+01
2.733577971753e+01
2.733718757610e+01
2.717184751507e+01
2.739658436093e+01
2.676379437832e+01
2.715770441201e+01
2.676694992272e+01
2.715365052457e+01
2.676567148460e+01
2.714899448061e+01
2.677078172172e+01
2.716518160630e+01
1.956130828125e+01
2.786992589160e+01
2.787034823394e+01
2.787551436045e+01
2.787354038557e+01
2.353319294499e+01
2.354565022237e+01
2.355951061866e+01
2.351966675390e+01
2.767832859479e+01
2.701298209077e+01
2.566018917602e+01
2.563377818428e+01
2.704756557992e+01
2.767848627424e+01
2.773195195905e+01
2.750826528024e+01
2.766815685276e+01
2.767815647994e+01
2.701646234746e+01
2.566891299148e+01
2.772985086088e+01
2.750672474079e+01
2.767421189253e+01
2.769009543964e+01
2.697872580958e+01
2.569006955512e+01
2.773223958092e+01
2.750792812992e+01
2.766638714453e+01
2.766783705504e+01
2.750728845888e+01
2.773170397901e+01
2.707605560098e+01
2.748407183334e+01
2.707954949433e+01
2.748075741427e+01
2.707890224704e+01
2.747459859926e+01
2.708405271785e+01
2.749174931814e+01
1.952452448873e+01
2.861614778444e+01
2.861639103553e+01
2.861941789291e+01
2.861826996452e+01
2.586460990341e+01
2.588221440259e+01
2.586920193441e+01
2.591002530674e+01
2.850323581240e+01
2.812071347059e+01
2.727003555438e+01
2.725043735649e+01
2.814352202952e+01
2.850217358636e+01
2.853153092556e+01
2.840321734161e+01
2.849725261064e+01
2.850342189970e+01
2.812299121239e+01
2.727780617986e+01
2.853073731862e+01
2.840236830427e+01
2.850066477800e+01
2.851163066361e+01
2.809815374079e+01
2.729586531861e+01
2.853238784751e+01
2.840330375283e+01
2.849612075001e+01
2.849697349506e+01
2.840284315135e+01
2.853167409181e+01
2.816963067239e+01
2.839142913201e+01
2.817084769368e+01
2.838972241769e+01
2.816920046201e+01
2.838638022068e+01
2.817316815054e+01
2.839601626883e+01
2.083933341466e+01
2.883415197480e+01
2.883453770038e+01
2.883668506196e+01
2.883543193267e+01
2.764987383032e+01
2.764149406820e+01
2.762322971951e+01
2.766822272350e+01
2.875203461986e+01
2.849326027627e+01
2.803407054771e+01
2.802181443102e+01
2.850491767301e+01
2.875231550706e+01
2.876956727560e+01
2.867256651567e+01
2.874469042931e+01
2.875215689681e+01
2.849438534372e+01
2.803560026050e+01
2.876885717699e+01
2.867197004808e+01
2.874717285384e+01
2.875603255716e+01
2.848145386990e+01
2.804749076546e+01
2.876989658759e+01
2.867224510253e+01
2.874419394397e+01
2.874474344521e+01
2.867213472014e+01
2.876947741303e+01
2.850173427862e+01
2.867039827267e+01
2.850318552522e+01
2.866820875721e+01
2.850260166405e+01
2.866679537839e+01
2.850447104535e+01
2.867341270141e+01
2.848529378550e+01
2.904795520652e+01
2.904831673531e+01
2.904895459465e+01
2.904935059633e+01
2.860248809760e+01
2.859740304708e+01
2.858659618193e+01
2.861289217323e+01
2.899217153396e+01
2.884380359000e+01
2.865062797264e+01
2.864479861724e+01
2.884854142770e+01
2.899224641969e+01
2.900002895750e+01
2.893345724654e+01
2.898629326345e+01
2.899237396939e+01
2.884407993261e+01
2.864972959100e+01
2.899953086494e+01
2.893324320616e+01
2.898782646523e+01
2.899429273853e+01
2.883828700609e+01
2.865460405936e+01
2.900023465475e+01
2.893327307374e+01
2.898593002768e+01
2.898628391053e+01
2.893320363005e+01
2.899998358070e+01
2.883083009129e+01
2.893848031667e+01
2.883182857102e+01
2.893631529179e+01
2.883147993908e+01
2.893657867319e+01
2.883235831789e+01
2.894036990902e+01
2.838660446784e+01
2.924618134488e+01
2.924649801085e+01
2.924652584791e+01
2.924718490973e+01
2.902223437866e+01
2.902112982316e+01
2.901974249002e+01
2.902253059339e+01
2.921157157587e+01
2.913534854822e+01
2.905555568199e+01
2.905351836039e+01
2.913726662578e+01
2.921126673104e+01
2.921341325534e+01
2.917280382558e+01
2.920729636693e+01
2.921180505393e+01
2.913533206015e+01
2.905493812600e+01
2.921322116015e+01
2.917274337491e+01
2.920816209793e+01
2.921298847006e+01
2.913259638258e+01
2.905594859076e+01
2.921367104464e+01
2.917270845190e+01
2.920711487290e+01
2.920730478757e+01
2.917268564607e+01
2.921340423599e+01
2.912188684986e+01
2.917993848090e+01
2.912241709818e+01
2.917830570293e+01
2.912206444822e+01
2.917903897123e+01
2.912254508552e+01
2.918094545999e+01
2.905646971079e+01
2.942104483720e+01
2.942131444136e+01
2.942139074822e+01
2.942139359163e+01
2.932110221076e+01
2.932055566538e+01
2.931937683421e+01
2.932214474253e+01
2.940193988810e+01
2.936600201055e+01
2.933146102247e+01
2.933045616951e+01
2.936689072447e+01
2.940160885262e+01
2.940125479358e+01
2.937920584186e+01
2.939883195578e+01
2.940213694311e+01
2.936597584540e+01
2.933121768741e+01
2.940128813738e+01
2.937917991716e+01
2.939928718019e+01
2.940277532196e+01
2.936459379452e+01
2.933173843032e+01
2.940154285005e+01
2.937911416266e+01
2.939881321386e+01
2.939890186002e+01
2.937914060469e+01
2.940124437049e+01
2.935768701778e+01
2.938523764770e+01
2.935792487116e+01
2.938421890922e+01
2.935759660409e+01
2.938482152902e+01
2.935787077725e+01
2.938567954569e+01
2.931429475016e+01
2.986159216592e+01
2.986164126276e+01
2.986168266801e+01
2.986149029037e+01
2.986255321144e+01
2.986257835514e+01
2.986265479589e+01
2.986243943991e+01
2.986107305256e+01
2.986129803929e+01
2.986221468066e+01
2.986221893524e+01
2.986128437657e+01
2.986102438229e+01
2.986064311438e+01
2.986007468952e+01
2.986075163338e+01
2.986110005640e+01
2.986129591646e+01
2.986221611432e+01
2.986070045259e+01
2.986008334725e+01
2.986076709071e+01
2.986108518438e+01