# vtk DataFile Version 3.0
Unstructured Grid from OpenGeoSys
ASCII
DATASET UNSTRUCTURED_GRID
FIELD TimesAndCycles 2
TIME 1 1 double
3.600000000000e+03
CYLCE 1 1 long
1
POINTS 1394 double
0.000000000000e+00 0.000000000000e+00 0.000000000000e+00
5.000000000000e+00 0.000000000000e+00 0.000000000000e+00
5.000000000000e+00 5.000000000000e+00 0.000000000000e+00
0.000000000000e+00 5.000000000000e+00 0.000000000000e+00
2.244234909000e+00 2.244234909000e+00 0.000000000000e+00
2.755765091000e+00 2.244234909000e+00 0.000000000000e+00
2.755765091000e+00 2.755765091000e+00 0.000000000000e+00
2.244234909000e+00 2.755765091000e+00 0.000000000000e+00
7.141316008320e-01 7.141316008320e-01 0.000000000000e+00
1.314642334730e+00 1.314642334730e+00 0.000000000000e+00
1.819609643610e+00 1.819609643610e+00 0.000000000000e+00
1.819609643610e+00 3.180390356390e+00 0.000000000000e+00
1.314642334740e+00 3.685357665260e+00 0.000000000000e+00
7.141316008360e-01 4.285868399160e+00 0.000000000000e+00
0.000000000000e+00 3.750000000000e+00 0.000000000000e+00
0.000000000000e+00 2.500000000000e+00 0.000000000000e+00
0.000000000000e+00 1.250000000000e+00 0.000000000000e+00
4.285868399170e+00 7.141316008320e-01 0.000000000000e+00
3.685357665270e+00 1.314642334730e+00 0.000000000000e+00
3.180390356390e+00 1.819609643610e+00 0.000000000000e+00
1.250000000000e+00 0.000000000000e+00 0.000000000000e+00
2.500000000000e+00 0.000000000000e+00 0.000000000000e+00
3.750000000000e+00 0.000000000000e+00 0.000000000000e+00
4.285868399170e+00 4.285868399170e+00 0.000000000000e+00
3.685357665270e+00 3.685357665270e+00 0.000000000000e+00
3.180390356390e+00 3.180390356390e+00 0.000000000000e+00
5.000000000000e+00 1.250000000000e+00 0.000000000000e+00
5.000000000000e+00 2.500000000000e+00 0.000000000000e+00
5.000000000000e+00 3.750000000000e+00 0.000000000000e+00
3.750000000000e+00 5.000000000000e+00 0.000000000000e+00
2.500000000000e+00 5.000000000000e+00 0.000000000000e+00
1.250000000000e+00 5.000000000000e+00 0.000000000000e+00
9.560744151940e-01 2.677827143250e+00 0.000000000000e+00
6.659597640160e-01 1.438876720610e+00 0.000000000000e+00
2.309219871940e+00 9.522638293400e-01 0.000000000000e+00
3.458157207860e+00 6.354750772000e-01 0.000000000000e+00
4.043925584810e+00 2.322172856750e+00 0.000000000000e+00
4.334040235980e+00 3.561123279390e+00 0.000000000000e+00
2.318530875810e+00 4.048536535600e+00 0.000000000000e+00
3.552396921680e+00 4.370927842320e+00 0.000000000000e+00
2.500000000000e+00 2.500000000000e+00 0.000000000000e+00
0.000000000000e+00 0.000000000000e+00 -5.000000000000e-01
5.000000000000e+00 0.000000000000e+00 -5.000000000000e-01
5.000000000000e+00 5.000000000000e+00 -5.000000000000e-01
0.000000000000e+00 5.000000000000e+00 -5.000000000000e-01
2.244234909000e+00 2.244234909000e+00 -5.000000000000e-01
2.755765091000e+00 2.244234909000e+00 -5.000000000000e-01
2.755765091000e+00 2.755765091000e+00 -5.000000000000e-01
2.244234909000e+00 2.755765091000e+00 -5.000000000000e-01
7.141316008320e-01 7.141316008320e-01 -5.000000000000e-01
1.314642334730e+00 1.314642334730e+00 -5.000000000000e-01
1.819609643610e+00 1.819609643610e+00 -5.000000000000e-01
1.819609643610e+00 3.180390356390e+00 -5.000000000000e-01
1.314642334740e+00 3.685357665260e+00 -5.000000000000e-01
7.141316008360e-01 4.285868399160e+00 -5.000000000000e-01
0.000000000000e+00 3.750000000000e+00 -5.000000000000e-01
0.000000000000e+00 2.500000000000e+00 -5.000000000000e-01
0.000000000000e+00 1.250000000000e+00 -5.000000000000e-01
4.285868399170e+00 7.141316008320e-01 -5.000000000000e-01
3.685357665270e+00 1.314642334730e+00 -5.000000000000e-01
3.180390356390e+00 1.819609643610e+00 -5.000000000000e-01
1.250000000000e+00 0.000000000000e+00 -5.000000000000e-01
2.500000000000e+00 0.000000000000e+00 -5.000000000000e-01
3.750000000000e+00 0.000000000000e+00 -5.000000000000e-01
4.285868399170e+00 4.285868399170e+00 -5.000000000000e-01
3.685357665270e+00 3.685357665270e+00 -5.000000000000e-01
3.180390356390e+00 3.180390356390e+00 -5.000000000000e-01
5.000000000000e+00 1.250000000000e+00 -5.000000000000e-01
5.000000000000e+00 2.500000000000e+00 -5.000000000000e-01
5.000000000000e+00 3.750000000000e+00 -5.000000000000e-01
3.750000000000e+00 5.000000000000e+00 -5.000000000000e-01
2.500000000000e+00 5.000000000000e+00 -5.000000000000e-01
1.250000000000e+00 5.000000000000e+00 -5.000000000000e-01
9.560744151940e-01 2.677827143250e+00 -5.000000000000e-01
6.659597640160e-01 1.438876720610e+00 -5.000000000000e-01
2.309219871940e+00 9.522638293400e-01 -5.000000000000e-01
3.458157207860e+00 6.354750772000e-01 -5.000000000000e-01
4.043925584810e+00 2.322172856750e+00 -5.000000000000e-01
4.334040235980e+00 3.561123279390e+00 -5.000000000000e-01
2.318530875810e+00 4.048536535600e+00 -5.000000000000e-01
3.552396921680e+00 4.370927842320e+00 -5.000000000000e-01
2.500000000000e+00 2.500000000000e+00 -5.000000000000e-01
0.000000000000e+00 0.000000000000e+00 -1.000000000000e+00
5.000000000000e+00 0.000000000000e+00 -1.000000000000e+00
5.000000000000e+00 5.000000000000e+00 -1.000000000000e+00
0.000000000000e+00 5.000000000000e+00 -1.000000000000e+00
2.244234909000e+00 2.244234909000e+00 -1.000000000000e+00
2.755765091000e+00 2.244234909000e+00 -1.000000000000e+00
2.755765091000e+00 2.755765091000e+00 -1.000000000000e+00
2.244234909000e+00 2.755765091000e+00 -1.000000000000e+00
7.141316008320e-01 7.141316008320e-01 -1.000000000000e+00
1.314642334730e+00 1.314642334730e+00 -1.000000000000e+00
1.819609643610e+00 1.819609643610e+00 -1.000000000000e+00
1.819609643610e+00 3.180390356390e+00 -1.000000000000e+00
1.314642334740e+00 3.685357665260e+00 -1.000000000000e+00
7.141316008360e-01 4.285868399160e+00 -1.000000000000e+00
0.000000000000e+00 3.750000000000e+00 -1.000000000000e+00
0.000000000000e+00 2.500000000000e+00 -1.000000000000e+00
0.000000000000e+00 1.250000000000e+00 -1.000000000000e+00
4.285868399170e+00 7.141316008320e-01 -1.000000000000e+00
3.685357665270e+00 1.314642334730e+00 -1.000000000000e+00
3.180390356390e+00 1.819609643610e+00 -1.000000000000e+00
1.250000000000e+00 0.000000000000e+00 -1.000000000000e+00
2.500000000000e+00 0.000000000000e+00 -1.000000000000e+00
3.750000000000e+00 0.000000000000e+00 -1.000000000000e+00
4.285868399170e+00 4.285868399170e+00 -1.000000000000e+00
3.685357665270e+00 3.685357665270e+00 -1.000000000000e+00
3.180390356390e+00 3.180390356390e+00 -1.000000000000e+00
5.000000000000e+00 1.250000000000e+00 -1.000000000000e+00
5.000000000000e+00 2.500000000000e+00 -1.000000000000e+00
5.000000000000e+00 3.750000000000e+00 -1.000000000000e+00
3.750000000000e+00 5.000000000000e+00 -1.000000000000e+00
2.500000000000e+00 5.000000000000e+00 -1.000000000000e+00
1.250000000000e+00 5.000000000000e+00 -1.000000000000e+00
9.560744151940e-01 2.677827143250e+00 -1.000000000000e+00
6.659597640160e-01 1.438876720610e+00 -1.000000000000e+00
2.309219871940e+00 9.522638293400e-01 -1.000000000000e+00
3.458157207860e+00 6.354750772000e-01 -1.000000000000e+00
4.043925584810e+00 2.322172856750e+00 -1.000000000000e+00
4.334040235980e+00 3.561123279390e+00 -1.000000000000e+00
2.318530875810e+00 4.048536535600e+00 -1.000000000000e+00
3.552396921680e+00 4.370927842320e+00 -1.000000000000e+00
2.500000000000e+00 2.500000000000e+00 -1.000000000000e+00
0.000000000000e+00 0.000000000000e+00 -3.000000000000e+00
5.000000000000e+00 0.000000000000e+00 -3.000000000000e+00
5.000000000000e+00 5.000000000000e+00 -3.000000000000e+00
0.000000000000e+00 5.000000000000e+00 -3.000000000000e+00
2.244234909000e+00 2.244234909000e+00 -3.000000000000e+00
2.755765091000e+00 2.244234909000e+00 -3.000000000000e+00
2.755765091000e+00 2.755765091000e+00 -3.000000000000e+00
2.244234909000e+00 2.755765091000e+00 -3.000000000000e+00
7.141316008320e-01 7.141316008320e-01 -3.000000000000e+00
1.314642334730e+00 1.314642334730e+00 -3.000000000000e+00
1.819609643610e+00 1.819609643610e+00 -3.000000000000e+00
1.819609643610e+00 3.180390356390e+00 -3.000000000000e+00
1.314642334740e+00 3.685357665260e+00 -3.000000000000e+00
7.141316008360e-01 4.285868399160e+00 -3.000000000000e+00
0.000000000000e+00 3.750000000000e+00 -3.000000000000e+00
0.000000000000e+00 2.500000000000e+00 -3.000000000000e+00
0.000000000000e+00 1.250000000000e+00 -3.000000000000e+00
4.285868399170e+00 7.141316008320e-01 -3.000000000000e+00
3.685357665270e+00 1.314642334730e+00 -3.000000000000e+00
3.180390356390e+00 1.819609643610e+00 -3.000000000000e+00
1.250000000000e+00 0.000000000000e+00 -3.000000000000e+00
2.500000000000e+00 0.000000000000e+00 -3.000000000000e+00
3.750000000000e+00 0.000000000000e+00 -3.000000000000e+00
4.285868399170e+00 4.285868399170e+00 -3.000000000000e+00
3.685357665270e+00 3.685357665270e+00 -3.000000000000e+00
3.180390356390e+00 3.180390356390e+00 -3.000000000000e+00
5.000000000000e+00 1.250000000000e+00 -3.000000000000e+00
5.000000000000e+00 2.500000000000e+00 -3.000000000000e+00
5.000000000000e+00 3.750000000000e+00 -3.000000000000e+00
3.750000000000e+00 5.000000000000e+00 -3.000000000000e+00
2.500000000000e+00 5.000000000000e+00 -3.000000000000e+00
1.250000000000e+00 5.000000000000e+00 -3.000000000000e+00
9.560744151940e-01 2.677827143250e+00 -3.000000000000e+00
6.659597640160e-01 1.438876720610e+00 -3.000000000000e+00
2.309219871940e+00 9.522638293400e-01 -3.000000000000e+00
3.458157207860e+00 6.354750772000e-01 -3.000000000000e+00
4.043925584810e+00 2.322172856750e+00 -3.000000000000e+00
4.334040235980e+00 3.561123279390e+00 -3.000000000000e+00
2.318530875810e+00 4.048536535600e+00 -3.000000000000e+00
3.552396921680e+00 4.370927842320e+00 -3.000000000000e+00
2.500000000000e+00 2.500000000000e+00 -3.000000000000e+00
0.000000000000e+00 0.000000000000e+00 -5.000000000000e+00
5.000000000000e+00 0.000000000000e+00 -5.000000000000e+00
5.000000000000e+00 5.000000000000e+00 -5.000000000000e+00
0.000000000000e+00 5.000000000000e+00 -5.000000000000e+00
2.244234909000e+00 2.244234909000e+00 -5.000000000000e+00
[...]
POINT_DATA 1394
SCALARS TEMPERATURE1 double 1
LOOKUP_TABLE default
1.000000000000e+01
1.000000000000e+01
1.000000000000e+01
1.000000000000e+01
1.000000000000e+01
1.000000000000e+01
1.000000000000e+01
1.000000000000e+01
1.000000000000e+01
1.000000000000e+01
1.000000000000e+01
1.000000000000e+01
1.000000000000e+01
1.000000000000e+01
1.000000000000e+01
1.000000000000e+01
1.000000000000e+01
1.000000000000e+01
1.000000000000e+01
1.000000000000e+01
1.000000000000e+01
1.000000000000e+01
1.000000000000e+01
1.000000000000e+01
1.000000000000e+01
1.000000000000e+01
1.000000000000e+01
1.000000000000e+01
1.000000000000e+01
1.000000000000e+01
1.000000000000e+01
1.000000000000e+01
1.000000000000e+01
1.000000000000e+01
1.000000000000e+01
1.000000000000e+01
1.000000000000e+01
1.000000000000e+01
1.000000000000e+01
1.000000000000e+01
1.000000000000e+01
1.544850361496e+01
1.544875187160e+01
1.544462176484e+01
1.544352250301e+01
1.819894626119e+01
1.820253705702e+01
1.825669496636e+01
1.811370805289e+01
1.562055823593e+01
1.623830641968e+01
1.730870611555e+01
1.733901290257e+01
1.621101651791e+01
1.561803834341e+01
1.556183849574e+01
1.577149666450e+01
1.562573486652e+01
1.562102846940e+01
1.623592929904e+01
1.730692034150e+01
1.556488233714e+01
1.577252205415e+01
1.562045143011e+01
1.561263225676e+01
1.626553597918e+01
1.727847489489e+01
1.556266002997e+01
1.577128462295e+01
1.562819375795e+01
1.562654014789e+01
1.577221210285e+01
1.556184262656e+01
1.621282784530e+01
1.580231137663e+01
1.620958644330e+01
1.580546631250e+01
1.620959565614e+01
1.581041763165e+01
1.620533479909e+01
1.579419977323e+01
1.642409036369e+01
2.126317824545e+01
2.126215965783e+01
2.125519852570e+01
2.125256522285e+01
2.714936175061e+01
2.719972187936e+01
2.722120576812e+01
2.718781055751e+01
2.166094513553e+01
2.283097452402e+01
2.492112985742e+01
2.496538688230e+01
2.277905662861e+01
2.166123764757e+01
2.158910851061e+01
2.205038939222e+01
2.169490113530e+01
2.166046984511e+01
2.282654801535e+01
2.490914027197e+01
2.159359274196e+01
2.205360245615e+01
2.168363052172e+01
2.163881658726e+01
2.288443041264e+01
2.486670821701e+01
2.158864778628e+01
2.205152753455e+01
2.169655937311e+01
2.169440419303e+01
2.205161087661e+01
2.158908335602e+01
2.280329479588e+01
2.204436938188e+01
2.279712751195e+01
2.205650016706e+01
2.280035970699e+01
2.206046637399e+01
2.279110243665e+01
2.203058511747e+01
3.738578133116e+01
2.456778708580e+01
2.456543817814e+01
2.455555780869e+01
2.455865486426e+01
3.046632190557e+01
3.050517855775e+01
3.051018443299e+01
3.052658383807e+01
2.501655011021e+01
2.626786437461e+01
2.834364583355e+01
2.838815863441e+01
2.621548624681e+01
2.501636408965e+01
2.495390241127e+01
2.547806971267e+01
2.506773492477e+01
2.501577962402e+01
2.626330173862e+01
2.833831238063e+01
2.495816273987e+01
2.548189364698e+01
2.505537591191e+01
2.499440238977e+01
2.632165124331e+01
2.830067391311e+01
2.495314659252e+01
2.548075114908e+01
2.506844420199e+01
2.506614346196e+01
2.547992326408e+01
2.495450845553e+01
2.627923309471e+01
2.544457305233e+01
2.627162207354e+01
2.546063468987e+01
2.627421683215e+01
2.546173358341e+01
2.626535492732e+01
2.543004201435e+01
3.917508545308e+01
2.659450821208e+01
2.659230176155e+01
2.658363175576e+01
2.658498111602e+01
3.233297172163e+01
3.236636985883e+01
3.237682243388e+01
3.237235855424e+01
2.702768127149e+01
2.822348917401e+01
3.021890965609e+01
3.026201023396e+01
2.817295319264e+01
2.702825172167e+01
2.696823862191e+01
2.747269051978e+01
2.707522630177e+01
2.702672772599e+01
2.821939166839e+01
3.021210174495e+01
2.697222343720e+01
2.747612670475e+01
2.706344143436e+01
2.700545085101e+01
2.827617802627e+01
3.017516646295e+01
2.696718000508e+01
2.747482980050e+01
2.707623590072e+01
2.707393547483e+01
2.747425814567e+01
2.696859542831e+01
2.823507363734e+01
2.743935948363e+01
2.822823201451e+01
2.745480085904e+01
2.823142852111e+01
2.745546009320e+01
2.822243287821e+01
2.742522420763e+01
4.031323119005e+01
2.777384730578e+01
2.777182397367e+01
2.776332978766e+01
2.776444919708e+01
3.360528922233e+01
3.363045246624e+01
3.363918226525e+01
3.363613379259e+01
2.819507649391e+01
2.937672257182e+01
3.137544348608e+01
3.141848901979e+01
2.932593928727e+01
2.819556370046e+01
2.813292323657e+01
2.862385161100e+01
2.823926123732e+01
2.819423980213e+01
2.937257341441e+01
3.136824228748e+01
2.813691249440e+01
2.862714235409e+01
2.822772700800e+01
2.817317591864e+01
2.942950884372e+01
3.133182897740e+01
2.813197103804e+01
2.862575898876e+01
2.824054489131e+01
2.823820431788e+01
2.862537862717e+01
2.813325084273e+01
2.938003556276e+01
2.859734259377e+01
2.937337584279e+01
2.861186462423e+01
2.937636643013e+01
2.861321439633e+01
2.936741392437e+01
2.858328422545e+01
4.111279746557e+01
2.838068938353e+01
2.837883699410e+01
2.837061313753e+01
2.837106830162e+01
3.443894663853e+01
3.445479935286e+01
3.446163798941e+01
3.445915484837e+01
2.879658691008e+01
2.997577431237e+01
3.200841956374e+01
3.205185704176e+01
2.992386001521e+01
2.879732704781e+01
2.873205764733e+01
2.921616550704e+01
2.883792804788e+01
2.879578049728e+01
2.997158398454e+01
3.199993134685e+01
2.873605028610e+01
2.921933210993e+01
2.882653558124e+01
2.877426862729e+01
3.002974704344e+01
3.196352884669e+01
2.873108531263e+01
2.921777162483e+01
2.883952338184e+01
2.883711502611e+01
2.921759431884e+01
2.873228505912e+01
2.997014114020e+01
2.919467236467e+01
2.996376093678e+01
2.920853240459e+01
2.996685878535e+01
2.921037351426e+01
2.995763646185e+01
2.918049730373e+01
4.157625474735e+01
2.863167246209e+01
2.862973613387e+01
2.862183155478e+01
2.862267739148e+01
3.405470374762e+01
3.408207898085e+01
3.409154849196e+01
3.408622017942e+01
2.903104431175e+01
3.014386106844e+01
3.201500975764e+01
3.205535182282e+01
3.009642219804e+01
2.903155534494e+01
2.897356019646e+01
2.943881672125e+01
2.907338460966e+01
2.903020943659e+01
3.014003338524e+01
3.200827496627e+01
2.897732471963e+01
2.944193416994e+01
2.906248600392e+01
2.901034154213e+01
3.019331565807e+01
3.197386076953e+01
2.897263511244e+01
2.944064127564e+01
2.907452693039e+01
2.907234073606e+01
2.944024044052e+01
2.897385378147e+01
3.015035997136e+01
2.941168518022e+01
3.014407965889e+01
2.942562621136e+01
3.014699880338e+01
2.942662618778e+01
3.013856256139e+01
2.939845048670e+01
4.139924246728e+01
2.888064327879e+01
2.887897168766e+01
2.887166528531e+01
2.887128816327e+01
3.450858440476e+01
3.452756857215e+01
3.453261288247e+01
3.453390133092e+01
2.926988671900e+01
3.037080134061e+01
3.226232374490e+01
3.230221080936e+01
3.032275549425e+01
2.927063233781e+01
2.920924771020e+01
2.966217792284e+01
2.930780599581e+01
2.926910377051e+01
3.036706858847e+01
3.225395090284e+01
2.921304187067e+01
2.966508343172e+01
2.929716616470e+01
2.924892200974e+01
3.042110857598e+01
3.222037877964e+01
2.920836131772e+01
2.966356705423e+01
2.930937986060e+01
2.930712232572e+01
2.966346199516e+01
2.920941166801e+01
3.036744996858e+01
2.964226708144e+01
3.036151694169e+01
2.965523580370e+01
3.036447860792e+01
2.965690653487e+01
3.035584707150e+01
2.962898693958e+01
4.128707153847e+01
2.889586425572e+01
2.889436396449e+01
2.888764122914e+01
2.888657804941e+01
3.436574176310e+01
3.437997646999e+01
3.438605378180e+01
3.438208269053e+01
2.926811210019e+01
3.032520158227e+01
3.215066069516e+01
3.218928417313e+01
3.027873999705e+01
2.926894854399e+01
2.920858693363e+01
2.964154785185e+01
2.930307100612e+01
2.926737160230e+01
3.032161904184e+01
3.214225077196e+01
2.921228316684e+01
2.964425208420e+01
2.929289817037e+01
2.924780256763e+01
3.037392328848e+01
3.210979319950e+01
2.920774859885e+01
2.964270381269e+01
2.930477160602e+01
2.930257029429e+01
2.964272522159e+01
2.920867651344e+01
3.031969601163e+01
2.962462145601e+01
3.031411918226e+01
2.963683650992e+01
3.031703551573e+01
2.963858715464e+01
3.030862611336e+01
2.961176719379e+01
4.078858008508e+01
2.877173568883e+01
2.877037508999e+01
2.876415028440e+01
2.876259852591e+01
3.404290613123e+01
3.405529349893e+01
3.406079251638e+01
3.405702297441e+01
2.912753273406e+01
3.013937023822e+01
3.189117688987e+01
3.192810820236e+01
3.009478460746e+01
2.912839931645e+01
2.906989649834e+01
2.948351499845e+01
2.916019033116e+01
2.912683358748e+01
3.013596476698e+01
3.188284361422e+01
2.907349177193e+01
2.948607014893e+01
2.915047620708e+01
2.910795869141e+01
3.018618820827e+01
3.185183064802e+01
2.906912926333e+01
2.948452537416e+01
2.916191037222e+01
2.915979341997e+01
2.948460329901e+01
2.906993946317e+01
3.013309730079e+01
2.946836791473e+01
3.012782245186e+01
2.947995526859e+01
3.013065055631e+01
2.948168745549e+01
3.012253450838e+01
2.945600635678e+01
4.015819123553e+01
2.863933718474e+01
2.863808591505e+01
2.863227063235e+01
2.863034098984e+01
3.372291288705e+01
3.373422868533e+01
3.373984975165e+01
3.373480452711e+01
2.898132649791e+01
2.995412014136e+01
3.164031907216e+01
3.167583917759e+01
2.991120554578e+01
2.898221417116e+01
2.892554055059e+01
2.932292438335e+01
2.901220559385e+01
2.898065730100e+01
2.995086727744e+01
3.163212098895e+01
2.892904448545e+01
2.932535923781e+01
2.900288041479e+01
2.896239913927e+01
2.999923475396e+01
3.160224485493e+01
2.892482838606e+01
2.932382642065e+01
2.901392099976e+01
2.901188133724e+01
2.932393895185e+01
2.892554551634e+01
2.994772601462e+01
2.930890457584e+01
2.994270547671e+01
2.931999740725e+01
2.994546872189e+01
2.932166868270e+01
2.993761097683e+01
2.929697390143e+01
3.959978346180e+01
2.852171921168e+01
2.852054929257e+01
2.851504740843e+01
2.851285028050e+01
3.344755179538e+01
3.345837062175e+01
3.346413310682e+01
3.345808644115e+01
2.885275698947e+01
2.979405108264e+01
3.142651497900e+01
3.146088426014e+01
2.975251131100e+01
2.885365665250e+01
2.879858863361e+01
2.918309120332e+01
2.888232187717e+01
2.885210966910e+01
2.979092244297e+01
3.141844801027e+01
2.880201600131e+01
2.918543610233e+01
2.887330692037e+01
2.883435741415e+01
2.983775995171e+01
3.138947709872e+01
2.879791912733e+01
2.918391835509e+01
2.888401844120e+01
2.888204428752e+01
2.918404888008e+01
2.879856603084e+01
2.978778513960e+01
2.916976333140e+01
2.978296373149e+01
2.918048104174e+01
2.978567580766e+01
2.918208381576e+01
2.977803171954e+01
2.915818646409e+01
3.913656212577e+01
2.840884188072e+01
2.840772582822e+01
2.840244347671e+01
2.840007552716e+01
3.320814469789e+01
3.321903114561e+01
3.322511114481e+01
3.321790213990e+01
2.873195880125e+01
2.964972415718e+01
3.124100553656e+01
3.127451843949e+01
2.960924287962e+01
2.873286458987e+01
2.867915061212e+01
2.905432286647e+01
2.876067928919e+01
2.873132418334e+01
2.964669026531e+01
3.123306040220e+01
2.868251859190e+01
2.905660817739e+01
2.875189198315e+01
2.871395545168e+01
2.969234747927e+01
3.120472149061e+01
2.867851014131e+01
2.905510645159e+01
2.876234532945e+01
2.876042354861e+01
2.905523946050e+01
2.867910907252e+01
2.964385636246e+01
2.904123893838e+01
2.963917981478e+01
2.905170713157e+01
2.964186046990e+01
2.905323087683e+01
2.963437850603e+01
2.902993137831e+01
3.876775597318e+01
2.823472621425e+01
2.823363317814e+01
2.822847614873e+01
2.822602588343e+01
3.293053988707e+01
3.294266699252e+01
3.294937454742e+01
3.294063192731e+01
2.855328687239e+01
2.945553707876e+01
3.101726879048e+01
3.105019727972e+01
2.941583499988e+01
2.855419497131e+01
2.850172863348e+01
2.887147557016e+01
2.858174759809e+01
2.855265097442e+01
2.945257685090e+01
3.100942810473e+01
2.850505613037e+01
2.887373916186e+01
2.857310137921e+01
2.853553606571e+01
2.949736524774e+01
3.098141405337e+01
2.850110240037e+01
2.887225499173e+01
2.858335681430e+01
2.858147778246e+01
2.887236506786e+01
2.850167552172e+01
2.945066720556e+01
2.885790391204e+01
2.944608071665e+01
2.886828165516e+01
2.944876222155e+01
2.886968404431e+01
2.944138856929e+01
2.884678341664e+01
3.844283471815e+01
2.785948977281e+01
2.785835235481e+01
2.785315686077e+01
2.785093883944e+01
3.240440198303e+01
3.242186772045e+01
3.242785093116e+01
3.242303870532e+01
2.817635120275e+01
2.906637839155e+01
3.059401186342e+01
3.062603327759e+01
2.902769726723e+01
2.817717219568e+01
2.812692642449e+01
2.849465761615e+01
2.820577095868e+01
2.817570524889e+01
2.906350551547e+01
3.058653630287e+01
2.813022254083e+01
2.849698026709e+01
2.819719546617e+01
2.815889974637e+01
2.910713969013e+01
3.055904732052e+01
2.812633323291e+01
2.849556800441e+01
2.820717613768e+01
2.820536561463e+01
2.849555473006e+01
2.812690510889e+01
2.906509762780e+01
2.847858158536e+01
2.906048735337e+01
2.848914398135e+01
2.906312624525e+01
2.849026148452e+01
2.905593115354e+01
2.846767948182e+01
3.813302854952e+01
2.779394131297e+01
2.779280762737e+01
2.778765711501e+01
2.778539973505e+01
3.228244893360e+01
3.230116128371e+01
3.230790880518e+01
3.230130015289e+01
2.810950824210e+01
2.899352010233e+01
3.050759059287e+01
3.053939612624e+01
2.895520486222e+01
2.811032817626e+01
2.806078466229e+01
2.842693886152e+01
2.813900517656e+01
2.810885517008e+01
2.899068624696e+01
3.050018423449e+01
2.806406843873e+01
2.842926273759e+01
2.813047957526e+01
2.809214894333e+01
2.903391394703e+01
3.047272779757e+01
2.806019601751e+01
2.842785979578e+01
2.814036843273e+01
2.813857882614e+01
2.842782337072e+01
2.806075683650e+01
2.899322877710e+01
2.841024775409e+01
2.898865318814e+01
2.842082667311e+01
2.899131000327e+01
2.842184353790e+01
2.898415511627e+01
2.839941891291e+01
3.801673855235e+01
2.779798603526e+01
2.779684500172e+01
2.779171849921e+01
2.778961931101e+01
3.216979722109e+01
3.219094072001e+01
3.219803287606e+01
3.219126758141e+01
2.810934809613e+01
2.897830894440e+01
3.046239963018e+01
3.049357732774e+01
2.894081114394e+01
2.811013146432e+01
2.806215457608e+01
2.842335149624e+01
2.813897497801e+01
2.810869388253e+01
2.897553476668e+01
3.045517480070e+01
2.806537935316e+01
2.842567938041e+01
2.813057368772e+01
2.809229061828e+01
2.901782859644e+01
3.042803727923e+01
2.806157389858e+01
2.842431940123e+01
2.814022572187e+01
2.813848826771e+01
2.842422677178e+01
2.806213683420e+01
2.897927786090e+01
2.840570524152e+01
2.897475460854e+01
2.841624514509e+01
2.897738985718e+01
2.841713089126e+01
2.897037562068e+01
2.839509560071e+01
3.793736949442e+01
2.795188081512e+01
2.795072245812e+01
2.794588179944e+01
2.794356219108e+01
3.208858182840e+01
3.211289208275e+01
3.211920448307e+01
3.211549063297e+01
2.825765067684e+01
2.909889550317e+01
3.051398774864e+01
3.054357965538e+01
2.906327771961e+01
2.825845418600e+01
2.821370106553e+01
2.856825498888e+01
2.828767453641e+01
2.825696316874e+01
2.909632492419e+01
3.050737881990e+01
2.821685554758e+01
2.857055001842e+01
2.827948323828e+01
2.824109384557e+01
2.913663082041e+01
3.048159034731e+01
2.821314071952e+01
2.856927655915e+01
2.828877367427e+01
2.828712557750e+01
2.856910367054e+01
2.821368443953e+01
2.910594806392e+01
2.854754049635e+01
2.910150261599e+01
2.855819646577e+01
2.910411259680e+01
2.855858437948e+01
2.909737487117e+01
2.853727258370e+01
3.785598654763e+01
2.824008516693e+01
2.823912007729e+01
2.823410027481e+01
2.823261570029e+01
3.215359574620e+01
3.218515136332e+01
3.219622429837e+01
3.218222124698e+01
2.852521649176e+01
2.933341016562e+01
3.071527326950e+01
3.074462251730e+01
2.929890100577e+01
2.852542522476e+01
2.847989250355e+01
2.881135082423e+01
2.855245279076e+01
2.852474192036e+01
2.933071418546e+01
3.070875504150e+01
2.848298951948e+01
2.881362671212e+01
2.854463085437e+01
2.850997205852e+01
2.936938504936e+01
3.068193969951e+01
2.847955614675e+01
2.881238035802e+01
2.855344516272e+01
2.855190977753e+01
2.881222509203e+01
2.847993590315e+01
2.933133001985e+01
2.879788195053e+01
2.932695352011e+01
2.880740215867e+01
2.932915576109e+01
2.880875431351e+01
2.932286945114e+01
2.878819189074e+01
3.783359820870e+01
2.850820676703e+01
2.850775174679e+01
2.850447223215e+01
2.850362813698e+01
3.180710445719e+01
3.180842077037e+01
3.178926261582e+01
3.184425859517e+01
2.868274733265e+01
2.920225216442e+01
3.021155790504e+01
3.022908812268e+01
2.917657611867e+01
2.868364341898e+01
2.865084097163e+01
2.885083742420e+01
2.869645560688e+01
2.868252073491e+01
2.920017144490e+01
3.020348887223e+01
2.865265102895e+01
2.885229716716e+01
2.869159143488e+01
2.867157156501e+01
2.922864618563e+01
3.018927380452e+01
2.865049574446e+01
2.885121590235e+01
2.869732639600e+01
2.869630348552e+01
2.885130304829e+01
2.865081907412e+01
2.917428025733e+01
2.885016886898e+01
2.917184252247e+01
2.885502946099e+01
2.917332808404e+01
2.885719161544e+01
2.916876335412e+01
2.884400279367e+01
3.757453761586e+01
2.857125440746e+01
2.857085636539e+01
2.856872815969e+01
2.856754582365e+01
3.009348615859e+01
3.010205045975e+01
3.013223191804e+01
3.005497875589e+01
2.870133107292e+01
2.906715979245e+01
2.965641018482e+01
2.967292116385e+01
2.905190745319e+01
2.870131858471e+01
2.868005767105e+01
2.883266114087e+01
2.871323047004e+01
2.870105290433e+01
2.906602002967e+01
2.965497242512e+01
2.868151772332e+01
2.883350754170e+01
2.870975612376e+01
2.869473203485e+01
2.908316340227e+01
2.963901527007e+01
2.867983770990e+01
2.883292182478e+01
2.871397198516e+01
2.871315656204e+01
2.883298670890e+01
2.867995234769e+01
2.907371951272e+01
2.882649559121e+01
2.907196475886e+01
2.883093649588e+01
2.907324038572e+01
2.883106452825e+01
2.907022887006e+01
2.882177273196e+01
2.917950609422e+01
2.863807446731e+01
2.863767716795e+01
2.863683742716e+01
2.863520463687e+01
2.929552984488e+01
2.930213586877e+01
2.931445284394e+01
2.928499880521e+01
2.872612556764e+01
2.894708017355e+01
2.921789841520e+01
2.922558830342e+01
2.894031495799e+01
2.872597684446e+01
2.871582578849e+01
2.882037012172e+01
2.873568207967e+01
2.872586807185e+01
2.894685706142e+01
2.921933798042e+01
2.871688188927e+01
2.882082949425e+01
2.873348046462e+01
2.872253729864e+01
2.895497620123e+01
2.921322551419e+01
2.871583292566e+01
2.882065992953e+01
2.873611711166e+01
2.873559475094e+01
2.882060968602e+01
2.871581938386e+01
2.897210867203e+01
2.880938431182e+01
2.897074541275e+01
2.881314599303e+01
2.897127607718e+01
2.881199885873e+01
2.896981463508e+01
2.880637526758e+01
2.952606432338e+01
2.871379653369e+01
2.871347567483e+01
2.871331179801e+01
2.871185968574e+01
2.905446954980e+01
2.905628830993e+01
2.905905845824e+01
2.905294223092e+01
2.876759954213e+01
2.888499102397e+01
2.900771283163e+01
2.901085915212e+01
2.888189146315e+01
2.876787318491e+01
2.876477464372e+01
2.882778698110e+01
2.877423623827e+01
2.876733189841e+01
2.888504875936e+01
2.900864235901e+01
2.876531729827e+01
2.882802400156e+01
2.877300287889e+01
2.876526219756e+01
2.888908448955e+01
2.900681432741e+01
2.876466573931e+01
2.882796229722e+01
2.877442519621e+01
2.877414503295e+01
2.882787867403e+01
2.876473817787e+01
2.890586653243e+01
2.881652670117e+01
2.890516642304e+01
2.881915264153e+01
2.890565936285e+01
2.881778707436e+01
2.890480018931e+01
2.881485271447e+01
2.902520022260e+01
2.880152150860e+01
2.880127515529e+01
2.880112854860e+01
2.880062909586e+01
2.895545355819e+01
2.895630626391e+01
2.895805465905e+01
2.895389537770e+01
2.883010259141e+01
2.888509795663e+01
2.893872528445e+01
2.894019980452e+01
2.888364558599e+01
2.883041111944e+01
2.883054296698e+01
2.886352638370e+01
2.883443291097e+01
2.882989734657e+01
2.888515524671e+01
2.893910535606e+01
2.883072070953e+01
2.886366927239e+01
2.883382196765e+01
2.882876661954e+01
2.888709995941e+01
2.893820776971e+01
2.883037156109e+01
2.886366775938e+01
2.883442803080e+01
2.883430111286e+01
2.886355871447e+01
2.883051824175e+01
2.889723046487e+01
2.885514785607e+01
2.889694463547e+01
2.885668983349e+01
2.889735033629e+01
2.885569836975e+01
2.889686305950e+01
2.885436720964e+01
2.896349426311e+01
2.922987062878e+01
2.922985639014e+01
2.922980047656e+01
2.922996236057e+01
2.922071082083e+01
2.922064469606e+01
2.922047827291e+01
2.922088926547e+01
2.922878804359e+01
2.922566048186e+01
2.922196409257e+01
2.922186576012e+01
2.922572920222e+01
2.922878209681e+01
2.922909488859e+01
2.922782979540e+01
2.922881778403e+01
2.922878672410e+01
2.922566527251e+01
2.922194641858e+01
2.922906944735e+01
2.922783577952e+01
2.922885098107e+01
2.922882856797e+01