# vtk DataFile Version 3.0
Unstructured Grid from OpenGeoSys
ASCII
DATASET UNSTRUCTURED_GRID
FIELD TimesAndCycles 2
TIME 1 1 double
3.600000000000e+03
CYLCE 1 1 long
1
POINTS 1394 double
0.000000000000e+00 0.000000000000e+00 0.000000000000e+00
5.000000000000e+00 0.000000000000e+00 0.000000000000e+00
5.000000000000e+00 5.000000000000e+00 0.000000000000e+00
0.000000000000e+00 5.000000000000e+00 0.000000000000e+00
2.244234909000e+00 2.244234909000e+00 0.000000000000e+00
2.755765091000e+00 2.244234909000e+00 0.000000000000e+00
2.755765091000e+00 2.755765091000e+00 0.000000000000e+00
2.244234909000e+00 2.755765091000e+00 0.000000000000e+00
7.141316008320e-01 7.141316008320e-01 0.000000000000e+00
1.314642334730e+00 1.314642334730e+00 0.000000000000e+00
1.819609643610e+00 1.819609643610e+00 0.000000000000e+00
1.819609643610e+00 3.180390356390e+00 0.000000000000e+00
1.314642334740e+00 3.685357665260e+00 0.000000000000e+00
7.141316008360e-01 4.285868399160e+00 0.000000000000e+00
0.000000000000e+00 3.750000000000e+00 0.000000000000e+00
0.000000000000e+00 2.500000000000e+00 0.000000000000e+00
0.000000000000e+00 1.250000000000e+00 0.000000000000e+00
4.285868399170e+00 7.141316008320e-01 0.000000000000e+00
3.685357665270e+00 1.314642334730e+00 0.000000000000e+00
3.180390356390e+00 1.819609643610e+00 0.000000000000e+00
1.250000000000e+00 0.000000000000e+00 0.000000000000e+00
2.500000000000e+00 0.000000000000e+00 0.000000000000e+00
3.750000000000e+00 0.000000000000e+00 0.000000000000e+00
4.285868399170e+00 4.285868399170e+00 0.000000000000e+00
3.685357665270e+00 3.685357665270e+00 0.000000000000e+00
3.180390356390e+00 3.180390356390e+00 0.000000000000e+00
5.000000000000e+00 1.250000000000e+00 0.000000000000e+00
5.000000000000e+00 2.500000000000e+00 0.000000000000e+00
5.000000000000e+00 3.750000000000e+00 0.000000000000e+00
3.750000000000e+00 5.000000000000e+00 0.000000000000e+00
2.500000000000e+00 5.000000000000e+00 0.000000000000e+00
1.250000000000e+00 5.000000000000e+00 0.000000000000e+00
9.560744151940e-01 2.677827143250e+00 0.000000000000e+00
6.659597640160e-01 1.438876720610e+00 0.000000000000e+00
2.309219871940e+00 9.522638293400e-01 0.000000000000e+00
3.458157207860e+00 6.354750772000e-01 0.000000000000e+00
4.043925584810e+00 2.322172856750e+00 0.000000000000e+00
4.334040235980e+00 3.561123279390e+00 0.000000000000e+00
2.318530875810e+00 4.048536535600e+00 0.000000000000e+00
3.552396921680e+00 4.370927842320e+00 0.000000000000e+00
2.500000000000e+00 2.500000000000e+00 0.000000000000e+00
0.000000000000e+00 0.000000000000e+00 -5.000000000000e-01
5.000000000000e+00 0.000000000000e+00 -5.000000000000e-01
5.000000000000e+00 5.000000000000e+00 -5.000000000000e-01
0.000000000000e+00 5.000000000000e+00 -5.000000000000e-01
2.244234909000e+00 2.244234909000e+00 -5.000000000000e-01
2.755765091000e+00 2.244234909000e+00 -5.000000000000e-01
2.755765091000e+00 2.755765091000e+00 -5.000000000000e-01
2.244234909000e+00 2.755765091000e+00 -5.000000000000e-01
7.141316008320e-01 7.141316008320e-01 -5.000000000000e-01
1.314642334730e+00 1.314642334730e+00 -5.000000000000e-01
1.819609643610e+00 1.819609643610e+00 -5.000000000000e-01
1.819609643610e+00 3.180390356390e+00 -5.000000000000e-01
1.314642334740e+00 3.685357665260e+00 -5.000000000000e-01
7.141316008360e-01 4.285868399160e+00 -5.000000000000e-01
0.000000000000e+00 3.750000000000e+00 -5.000000000000e-01
0.000000000000e+00 2.500000000000e+00 -5.000000000000e-01
0.000000000000e+00 1.250000000000e+00 -5.000000000000e-01
4.285868399170e+00 7.141316008320e-01 -5.000000000000e-01
3.685357665270e+00 1.314642334730e+00 -5.000000000000e-01
3.180390356390e+00 1.819609643610e+00 -5.000000000000e-01
1.250000000000e+00 0.000000000000e+00 -5.000000000000e-01
2.500000000000e+00 0.000000000000e+00 -5.000000000000e-01
3.750000000000e+00 0.000000000000e+00 -5.000000000000e-01
4.285868399170e+00 4.285868399170e+00 -5.000000000000e-01
3.685357665270e+00 3.685357665270e+00 -5.000000000000e-01
3.180390356390e+00 3.180390356390e+00 -5.000000000000e-01
5.000000000000e+00 1.250000000000e+00 -5.000000000000e-01
5.000000000000e+00 2.500000000000e+00 -5.000000000000e-01
5.000000000000e+00 3.750000000000e+00 -5.000000000000e-01
3.750000000000e+00 5.000000000000e+00 -5.000000000000e-01
2.500000000000e+00 5.000000000000e+00 -5.000000000000e-01
1.250000000000e+00 5.000000000000e+00 -5.000000000000e-01
9.560744151940e-01 2.677827143250e+00 -5.000000000000e-01
6.659597640160e-01 1.438876720610e+00 -5.000000000000e-01
2.309219871940e+00 9.522638293400e-01 -5.000000000000e-01
3.458157207860e+00 6.354750772000e-01 -5.000000000000e-01
4.043925584810e+00 2.322172856750e+00 -5.000000000000e-01
4.334040235980e+00 3.561123279390e+00 -5.000000000000e-01
2.318530875810e+00 4.048536535600e+00 -5.000000000000e-01
3.552396921680e+00 4.370927842320e+00 -5.000000000000e-01
2.500000000000e+00 2.500000000000e+00 -5.000000000000e-01
0.000000000000e+00 0.000000000000e+00 -1.000000000000e+00
5.000000000000e+00 0.000000000000e+00 -1.000000000000e+00
5.000000000000e+00 5.000000000000e+00 -1.000000000000e+00
0.000000000000e+00 5.000000000000e+00 -1.000000000000e+00
2.244234909000e+00 2.244234909000e+00 -1.000000000000e+00
2.755765091000e+00 2.244234909000e+00 -1.000000000000e+00
2.755765091000e+00 2.755765091000e+00 -1.000000000000e+00
2.244234909000e+00 2.755765091000e+00 -1.000000000000e+00
7.141316008320e-01 7.141316008320e-01 -1.000000000000e+00
1.314642334730e+00 1.314642334730e+00 -1.000000000000e+00
1.819609643610e+00 1.819609643610e+00 -1.000000000000e+00
1.819609643610e+00 3.180390356390e+00 -1.000000000000e+00
1.314642334740e+00 3.685357665260e+00 -1.000000000000e+00
7.141316008360e-01 4.285868399160e+00 -1.000000000000e+00
0.000000000000e+00 3.750000000000e+00 -1.000000000000e+00
0.000000000000e+00 2.500000000000e+00 -1.000000000000e+00
0.000000000000e+00 1.250000000000e+00 -1.000000000000e+00
4.285868399170e+00 7.141316008320e-01 -1.000000000000e+00
3.685357665270e+00 1.314642334730e+00 -1.000000000000e+00
3.180390356390e+00 1.819609643610e+00 -1.000000000000e+00
1.250000000000e+00 0.000000000000e+00 -1.000000000000e+00
2.500000000000e+00 0.000000000000e+00 -1.000000000000e+00
3.750000000000e+00 0.000000000000e+00 -1.000000000000e+00
4.285868399170e+00 4.285868399170e+00 -1.000000000000e+00
3.685357665270e+00 3.685357665270e+00 -1.000000000000e+00
3.180390356390e+00 3.180390356390e+00 -1.000000000000e+00
5.000000000000e+00 1.250000000000e+00 -1.000000000000e+00
5.000000000000e+00 2.500000000000e+00 -1.000000000000e+00
5.000000000000e+00 3.750000000000e+00 -1.000000000000e+00
3.750000000000e+00 5.000000000000e+00 -1.000000000000e+00
2.500000000000e+00 5.000000000000e+00 -1.000000000000e+00
1.250000000000e+00 5.000000000000e+00 -1.000000000000e+00
9.560744151940e-01 2.677827143250e+00 -1.000000000000e+00
6.659597640160e-01 1.438876720610e+00 -1.000000000000e+00
2.309219871940e+00 9.522638293400e-01 -1.000000000000e+00
3.458157207860e+00 6.354750772000e-01 -1.000000000000e+00
4.043925584810e+00 2.322172856750e+00 -1.000000000000e+00
4.334040235980e+00 3.561123279390e+00 -1.000000000000e+00
2.318530875810e+00 4.048536535600e+00 -1.000000000000e+00
3.552396921680e+00 4.370927842320e+00 -1.000000000000e+00
2.500000000000e+00 2.500000000000e+00 -1.000000000000e+00
0.000000000000e+00 0.000000000000e+00 -3.000000000000e+00
5.000000000000e+00 0.000000000000e+00 -3.000000000000e+00
5.000000000000e+00 5.000000000000e+00 -3.000000000000e+00
0.000000000000e+00 5.000000000000e+00 -3.000000000000e+00
2.244234909000e+00 2.244234909000e+00 -3.000000000000e+00
2.755765091000e+00 2.244234909000e+00 -3.000000000000e+00
2.755765091000e+00 2.755765091000e+00 -3.000000000000e+00
2.244234909000e+00 2.755765091000e+00 -3.000000000000e+00
7.141316008320e-01 7.141316008320e-01 -3.000000000000e+00
1.314642334730e+00 1.314642334730e+00 -3.000000000000e+00
1.819609643610e+00 1.819609643610e+00 -3.000000000000e+00
1.819609643610e+00 3.180390356390e+00 -3.000000000000e+00
1.314642334740e+00 3.685357665260e+00 -3.000000000000e+00
7.141316008360e-01 4.285868399160e+00 -3.000000000000e+00
0.000000000000e+00 3.750000000000e+00 -3.000000000000e+00
0.000000000000e+00 2.500000000000e+00 -3.000000000000e+00
0.000000000000e+00 1.250000000000e+00 -3.000000000000e+00
4.285868399170e+00 7.141316008320e-01 -3.000000000000e+00
3.685357665270e+00 1.314642334730e+00 -3.000000000000e+00
3.180390356390e+00 1.819609643610e+00 -3.000000000000e+00
1.250000000000e+00 0.000000000000e+00 -3.000000000000e+00
2.500000000000e+00 0.000000000000e+00 -3.000000000000e+00
3.750000000000e+00 0.000000000000e+00 -3.000000000000e+00
4.285868399170e+00 4.285868399170e+00 -3.000000000000e+00
3.685357665270e+00 3.685357665270e+00 -3.000000000000e+00
3.180390356390e+00 3.180390356390e+00 -3.000000000000e+00
5.000000000000e+00 1.250000000000e+00 -3.000000000000e+00
5.000000000000e+00 2.500000000000e+00 -3.000000000000e+00
5.000000000000e+00 3.750000000000e+00 -3.000000000000e+00
3.750000000000e+00 5.000000000000e+00 -3.000000000000e+00
2.500000000000e+00 5.000000000000e+00 -3.000000000000e+00
1.250000000000e+00 5.000000000000e+00 -3.000000000000e+00
9.560744151940e-01 2.677827143250e+00 -3.000000000000e+00
6.659597640160e-01 1.438876720610e+00 -3.000000000000e+00
2.309219871940e+00 9.522638293400e-01 -3.000000000000e+00
3.458157207860e+00 6.354750772000e-01 -3.000000000000e+00
4.043925584810e+00 2.322172856750e+00 -3.000000000000e+00
4.334040235980e+00 3.561123279390e+00 -3.000000000000e+00
2.318530875810e+00 4.048536535600e+00 -3.000000000000e+00
3.552396921680e+00 4.370927842320e+00 -3.000000000000e+00
2.500000000000e+00 2.500000000000e+00 -3.000000000000e+00
0.000000000000e+00 0.000000000000e+00 -5.000000000000e+00
5.000000000000e+00 0.000000000000e+00 -5.000000000000e+00
5.000000000000e+00 5.000000000000e+00 -5.000000000000e+00
0.000000000000e+00 5.000000000000e+00 -5.000000000000e+00
2.244234909000e+00 2.244234909000e+00 -5.000000000000e+00
[...]
POINT_DATA 1394
SCALARS TEMPERATURE1 double 1
LOOKUP_TABLE default
1.000000000000e+01
1.000000000000e+01
1.000000000000e+01
1.000000000000e+01
1.000000000000e+01
1.000000000000e+01
1.000000000000e+01
1.000000000000e+01
1.000000000000e+01
1.000000000000e+01
1.000000000000e+01
1.000000000000e+01
1.000000000000e+01
1.000000000000e+01
1.000000000000e+01
1.000000000000e+01
1.000000000000e+01
1.000000000000e+01
1.000000000000e+01
1.000000000000e+01
1.000000000000e+01
1.000000000000e+01
1.000000000000e+01
1.000000000000e+01
1.000000000000e+01
1.000000000000e+01
1.000000000000e+01
1.000000000000e+01
1.000000000000e+01
1.000000000000e+01
1.000000000000e+01
1.000000000000e+01
1.000000000000e+01
1.000000000000e+01
1.000000000000e+01
1.000000000000e+01
1.000000000000e+01
1.000000000000e+01
1.000000000000e+01
1.000000000000e+01
1.000000000000e+01
1.667660328416e+01
1.667624733792e+01
1.666861276325e+01
1.667108954778e+01
2.040508973278e+01
2.043558431526e+01
2.052555433036e+01
2.029669284519e+01
1.693964881023e+01
1.782316791535e+01
1.937324795649e+01
1.941820339518e+01
1.778348691812e+01
1.693668663417e+01
1.686870859868e+01
1.718469945076e+01
1.695759097957e+01
1.693992044801e+01
1.781943038708e+01
1.936943347889e+01
1.687233614137e+01
1.718677730413e+01
1.694970951281e+01
1.692728844715e+01
1.786213327724e+01
1.932369945545e+01
1.686905283203e+01
1.718529618868e+01
1.695971445717e+01
1.695762567851e+01
1.718580422557e+01
1.686882733518e+01
1.778971123196e+01
1.720882929153e+01
1.778512819382e+01
1.721513149768e+01
1.778626749256e+01
1.722079763717e+01
1.777983091754e+01
1.719789988631e+01
1.860557850222e+01
2.385200487730e+01
2.385054956345e+01
2.383996284189e+01
2.383705666782e+01
3.459949110736e+01
3.455673923554e+01
3.448246857915e+01
3.468119701058e+01
2.440918904985e+01
2.612304759819e+01
2.931004169712e+01
2.936594708095e+01
2.604143870520e+01
2.441016686955e+01
2.428919308618e+01
2.493888680597e+01
2.444593051390e+01
2.440887883136e+01
2.611696322465e+01
2.929068934575e+01
2.429570003755e+01
2.494274428617e+01
2.443029259102e+01
2.437571104936e+01
2.620805684928e+01
2.925319591521e+01
2.428892028180e+01
2.493948821860e+01
2.445048602252e+01
2.444636747553e+01
2.494060254683e+01
2.428942381529e+01
2.605226909924e+01
2.495571564644e+01
2.604360853340e+01
2.497049473157e+01
2.604618221071e+01
2.497836692333e+01
2.603233624592e+01
2.493442019354e+01
4.772194126870e+01
2.761473803029e+01
2.761243140315e+01
2.760267907898e+01
2.759749920328e+01
3.780537699969e+01
3.777780219501e+01
3.773880095411e+01
3.784664196909e+01
2.823437862367e+01
3.001409143681e+01
3.312879598663e+01
3.318811912096e+01
2.993416587084e+01
2.823667108114e+01
2.812551714549e+01
2.884686004012e+01
2.828361878868e+01
2.823320285731e+01
3.000863892295e+01
3.311249490849e+01
2.813203134756e+01
2.885070345924e+01
2.826685604186e+01
2.819867709241e+01
3.009943716225e+01
3.307022613516e+01
2.812429092928e+01
2.884767829629e+01
2.828791602340e+01
2.828364675327e+01
2.884849873362e+01
2.812552067588e+01
2.999726426820e+01
2.883094280114e+01
2.998835593436e+01
2.885034393936e+01
2.999277632418e+01
2.885388229037e+01
2.997812534463e+01
2.880851242264e+01
4.848198213392e+01
2.934408327791e+01
2.934166918805e+01
2.933284440387e+01
2.932786727500e+01
3.871389177178e+01
3.868608245063e+01
3.864341415924e+01
3.876025076886e+01
2.992750781932e+01
3.157244963511e+01
3.440966657115e+01
3.446287596471e+01
3.149958570336e+01
2.993003860695e+01
2.983115036738e+01
3.050994766051e+01
2.997596611952e+01
2.992620432010e+01
3.156772745575e+01
3.439525438561e+01
2.983706254085e+01
3.051347572106e+01
2.996036251723e+01
2.989409265763e+01
3.165098745626e+01
3.435880112463e+01
2.982979459649e+01
3.051081024115e+01
2.997984192464e+01
2.997585824324e+01
3.051145451524e+01
2.983116738820e+01
3.157040090409e+01
3.048641708357e+01
3.156211806298e+01
3.050537509844e+01
3.156642354025e+01
3.050746798529e+01
3.155286421497e+01
3.046560623230e+01
4.879976252206e+01
2.996464723028e+01
2.996238890031e+01
2.995398933944e+01
2.994881585691e+01
3.905474403776e+01
3.902727051406e+01
3.898539131509e+01
3.909972502793e+01
3.052706400501e+01
3.211639748304e+01
3.486500143412e+01
3.491636679762e+01
3.204582876072e+01
3.052951675822e+01
3.043311319056e+01
3.108734366613e+01
3.057303824693e+01
3.052583724603e+01
3.211181869497e+01
3.485080150290e+01
3.043888899067e+01
3.109073943490e+01
3.055798710315e+01
3.049469906942e+01
3.219242303097e+01
3.481557700423e+01
3.043186252022e+01
3.108810506707e+01
3.057684240823e+01
3.057298715284e+01
3.108876810088e+01
3.043310228222e+01
3.211244167866e+01
3.106612385433e+01
3.210448495418e+01
3.108428943736e+01
3.210863673932e+01
3.108645870653e+01
3.209549045050e+01
3.104598970628e+01
4.885804104954e+01
3.013697797131e+01
3.013479559296e+01
3.012665713534e+01
3.012116355194e+01
3.910343436189e+01
3.907588058659e+01
3.903340019245e+01
3.914915551351e+01
3.069169192484e+01
3.225899705445e+01
3.496606349563e+01
3.501644286124e+01
3.218952957241e+01
3.069410365167e+01
3.059869913489e+01
3.124399202515e+01
3.073665804591e+01
3.069049786012e+01
3.225452015402e+01
3.495209618256e+01
3.060446454581e+01
3.124732832130e+01
3.072182586509e+01
3.065975071245e+01
3.233389563215e+01
3.491774396779e+01
3.059752966952e+01
3.124470321465e+01
3.074045338942e+01
3.073664571613e+01
3.124537690941e+01
3.059867185203e+01
3.225584519231e+01
3.122339782396e+01
3.224800375018e+01
3.124131400125e+01
3.225206649543e+01
3.124342402530e+01
3.223910321294e+01
3.120350092147e+01
4.882610101517e+01
3.015457084098e+01
3.015242815391e+01
3.014436865096e+01
3.013880304042e+01
3.907441671890e+01
3.904682195865e+01
3.900423471777e+01
3.912018969688e+01
3.070542585662e+01
3.226318522278e+01
3.495498537966e+01
3.500501326012e+01
3.219411805185e+01
3.070780156024e+01
3.061268699641e+01
3.125351450607e+01
3.074985640836e+01
3.070425485604e+01
3.225873517449e+01
3.494107037302e+01
3.061844569175e+01
3.125682957653e+01
3.073512542229e+01
3.067368176328e+01
3.233763508899e+01
3.490698631060e+01
3.061155758160e+01
3.125420433675e+01
3.075364674647e+01
3.074985989366e+01
3.125488345342e+01
3.061265463103e+01
3.225959697832e+01
3.123357135492e+01
3.225180995469e+01
3.125133061994e+01
3.225582420088e+01
3.125347260544e+01
3.224293744595e+01
3.121378383799e+01
4.876453318145e+01
2.990873632096e+01
2.990679745783e+01
2.989932516909e+01
2.989279614183e+01
3.868784026547e+01
3.865920505102e+01
3.861371863741e+01
3.873684734820e+01
3.044647971927e+01
3.197176092972e+01
3.460804626255e+01
3.465636954472e+01
3.190424337104e+01
3.044878252004e+01
3.035395232286e+01
3.097954317524e+01
3.048831457201e+01
3.044540304654e+01
3.196745540309e+01
3.459426554306e+01
3.035977378853e+01
3.098273614443e+01
3.047392993865e+01
3.041534689223e+01
3.204463466615e+01
3.456182525826e+01
3.035302618020e+01
3.098006901203e+01
3.049218822478e+01
3.048846762195e+01
3.098083283167e+01
3.035387449325e+01
3.196748481166e+01
3.096257389200e+01
3.195987872855e+01
3.097976406333e+01
3.196369383556e+01
3.098202396666e+01
3.195107810404e+01
3.094310970798e+01
4.840107554637e+01
2.971140959448e+01
2.970963531357e+01
2.970260810406e+01
2.969538882253e+01
3.836782220263e+01
3.833845415120e+01
3.829090623664e+01
3.841911469962e+01
3.023779547520e+01
3.173544434005e+01
3.432531757121e+01
3.437228167558e+01
3.166921399522e+01
3.024001775177e+01
3.014547101604e+01
3.075790576382e+01
3.027750067766e+01
3.023680002104e+01
3.173124980768e+01
3.431166662975e+01
3.015133154764e+01
3.076100067462e+01
3.026341106305e+01
3.020721185237e+01
3.180698090578e+01
3.428050337992e+01
3.014470990683e+01
3.075830617849e+01
3.028143282221e+01
3.027776952638e+01
3.075913507480e+01
3.014536129006e+01
3.173031110370e+01
3.074350182597e+01
3.172285442508e+01
3.076019535898e+01
3.172649541456e+01
3.076257647843e+01
3.171411627927e+01
3.072432336957e+01
4.808271822319e+01
2.956544222327e+01
2.956380228745e+01
2.955714043885e+01
2.954938701614e+01
3.811048668315e+01
3.808058104440e+01
3.803141246336e+01
3.816361423918e+01
3.008187429966e+01
3.155509893262e+01
3.410388370767e+01
3.414968422510e+01
3.149000189997e+01
3.008402577364e+01
2.998983525945e+01
3.059074539179e+01
3.011980505492e+01
3.008094620805e+01
3.155099900055e+01
3.409036058366e+01
2.999571726643e+01
3.059375646661e+01
3.010597320211e+01
3.005178346753e+01
3.162545333933e+01
3.406027579224e+01
2.998920783583e+01
3.059104526206e+01
3.012377864721e+01
3.012016691062e+01
3.059192578371e+01
2.998970129233e+01
3.154925333863e+01
3.057845507221e+01
3.154192545892e+01
3.059472076631e+01
3.154541788907e+01
3.059720158487e+01
3.153325016534e+01
3.055953617433e+01
4.781478207202e+01
2.945754660491e+01
2.945601388420e+01
2.944963997888e+01
2.944148957117e+01
3.790674298860e+01
3.787645568199e+01
3.782606612494e+01
3.796127331794e+01
2.996556273218e+01
3.141812136925e+01
3.393227599644e+01
3.397712342815e+01
3.135397544879e+01
2.996765200470e+01
2.987381767733e+01
3.046499108710e+01
3.000205344883e+01
2.996468973384e+01
3.141409780805e+01
3.391886823811e+01
2.987970946584e+01
3.046793345079e+01
2.998843832918e+01
2.993589637012e+01
3.148747683284e+01
3.388965394716e+01
2.987329634949e+01
3.046521276662e+01
3.000605546798e+01
3.000248801071e+01
3.046613323630e+01
2.987366604445e+01
3.141164330878e+01
3.045442505921e+01
3.140442225314e+01
3.047033162315e+01
3.140779083466e+01
3.047289702929e+01
3.139580386810e+01
3.043573079740e+01
4.759452978456e+01
2.938514554359e+01
2.938369366358e+01
2.937753566264e+01
2.936911215845e+01
3.775417819085e+01
3.772364961226e+01
3.767240147972e+01
3.780971941446e+01
2.988631465899e+01
3.132197650937e+01
3.380784260081e+01
3.385193816895e+01
3.125860334837e+01
2.988835205278e+01
2.979487110144e+01
3.037812869653e+01
2.992169386215e+01
2.988548430374e+01
3.131801263173e+01
3.379453742215e+01
2.980076260614e+01
3.038101693793e+01
2.990825434096e+01
2.985700131274e+01
3.139051551419e+01
3.376599831124e+01
2.979442913808e+01
3.037829315692e+01
2.992571251424e+01
2.992218183556e+01
3.037924246749e+01
2.979470766509e+01
3.131498708505e+01
3.036888855063e+01
3.130785134376e+01
3.038450690582e+01
3.131112128244e+01
3.038713862783e+01
3.129928368658e+01
3.035038254823e+01
4.742079430171e+01
2.934475969533e+01
2.934336328401e+01
2.933735286169e+01
2.932876911576e+01
3.765010966655e+01
3.761946393766e+01
3.756768981753e+01
3.770629750680e+01
2.984068625261e+01
3.126330525741e+01
3.372733784948e+01
3.377087945535e+01
3.120052423008e+01
2.984268309013e+01
2.974953966918e+01
3.032674116901e+01
2.987527492181e+01
2.983988624507e+01
3.125938493116e+01
3.371412008186e+01
2.975542265396e+01
3.032958967561e+01
2.986196928460e+01
2.981165070504e+01
3.133121431723e+01
3.368606686316e+01
2.974915140382e+01
3.032686810970e+01
2.987929978470e+01
2.987579806366e+01
3.032783581501e+01
2.974936967494e+01
3.125593569333e+01
3.031843410079e+01
3.124886390332e+01
3.033383618168e+01
3.125206062196e+01
3.033651528470e+01
3.124033971355e+01
3.030007788854e+01
4.729274040245e+01
2.933474449786e+01
2.933337899000e+01
2.932745090679e+01
2.931881225036e+01
3.759304150862e+01
3.756239349427e+01
3.751040617471e+01
3.764953217243e+01
2.982703201347e+01
3.124046109842e+01
3.368908006194e+01
3.373226114120e+01
3.117809322160e+01
2.982899994571e+01
2.973617059462e+01
3.030917413639e+01
2.986114266940e+01
2.982625028475e+01
3.123656873940e+01
3.367593405987e+01
2.974203789150e+01
3.031199688677e+01
2.984792933931e+01
2.979819829936e+01
3.130792618992e+01
3.364818351735e+01
2.973581122075e+01
3.030928228237e+01
2.986516430849e+01
2.986168362959e+01
3.031025852520e+01
2.973599892649e+01
3.123284974402e+01
3.030141602385e+01
3.122582072974e+01
3.031667340172e+01
3.122896933885e+01
3.031938092926e+01
3.121733232919e+01
3.028317049729e+01
4.721000192815e+01
2.935608682287e+01
2.935472693773e+01
2.934881475024e+01
2.934023402923e+01
3.758223005419e+01
3.755170193986e+01
3.749982193532e+01
3.763867452151e+01
2.984625832311e+01
3.125407257817e+01
3.369318158179e+01
3.373618703896e+01
3.119195128613e+01
2.984820879071e+01
2.975570004661e+01
3.032627023787e+01
2.988020775189e+01
2.984548253319e+01
3.125019364776e+01
3.368009549445e+01
2.976154243162e+01
3.032908107071e+01
2.986704763625e+01
2.981755605804e+01
3.132126638338e+01
3.365247059413e+01
2.975534397158e+01
3.032637919512e+01
2.988421502647e+01
2.988074815567e+01
3.032735319969e+01
2.975553191275e+01
3.124637409110e+01
3.031865865318e+01
3.123936795303e+01
3.033384178015e+01
3.124249317791e+01
3.033655628054e+01
3.123090955683e+01
3.030048855452e+01
4.716908111112e+01
2.937982086665e+01
2.937846330326e+01
2.937256088769e+01
2.936398062173e+01
3.759608955644e+01
3.756563263165e+01
3.751382510413e+01
3.765250737734e+01
2.986952168562e+01
3.127612201074e+01
3.371261280090e+01
3.375557700749e+01
3.121407309227e+01
2.987146358934e+01
2.977900545954e+01
3.034905456417e+01
2.990342437783e+01
2.986874805226e+01
3.127224761996e+01
3.369955985268e+01
2.978484485594e+01
3.035186105798e+01
2.989027521882e+01
2.984085793937e+01
3.134324067198e+01
3.367196712258e+01
2.977865272578e+01
3.034916284048e+01
2.990743088363e+01
2.990396700819e+01
3.035013802906e+01
2.977883838393e+01
3.126850454364e+01
3.034149696610e+01
3.126150012337e+01
3.035666408003e+01
3.126461619923e+01
3.035938031509e+01
3.125304884098e+01
3.032334242505e+01
4.717437189129e+01
2.945698078353e+01
2.945561607201e+01
2.944970517809e+01
2.944125731157e+01
3.765040892425e+01
3.761990791833e+01
3.756828423733e+01
3.770638213155e+01
2.994459082876e+01
3.134496886694e+01
3.377366799944e+01
3.381649262173e+01
3.128309581024e+01
2.994655722685e+01
2.985462437296e+01
3.042213859013e+01
2.997842790531e+01
2.994381160924e+01
3.134109983165e+01
3.376056628461e+01
2.986041256499e+01
3.042493573081e+01
2.996533557091e+01
2.991600753431e+01
3.141188468643e+01
3.373302648384e+01
2.985424470291e+01
3.042224945334e+01
2.998240565573e+01
2.997895721323e+01
3.042321632532e+01
2.985445816106e+01
3.133686196867e+01
3.041446738024e+01
3.132990175343e+01
3.042956596627e+01
3.133303257573e+01
3.043227492691e+01
3.132149535890e+01
3.039640350923e+01
4.718781774725e+01
2.962634931213e+01
2.962498909574e+01
2.961930895491e+01
2.961044542086e+01
3.772174494889e+01
3.769176091684e+01
3.763980858627e+01
3.777904086318e+01
3.011391454229e+01
3.150776719900e+01
3.390682307278e+01
3.394903171733e+01
3.144671975368e+01
3.011588021763e+01
3.002487352105e+01
3.059246729763e+01
3.014796203645e+01
3.011312027507e+01
3.150400959376e+01
3.389424594575e+01
3.003069354530e+01
3.059523184030e+01
3.013490517058e+01
3.008551072523e+01
3.157398807159e+01
3.386744555654e+01
3.002453415380e+01
3.059257924039e+01
3.015193811022e+01
3.014851137354e+01
3.059354042892e+01
3.002470125799e+01
3.150427224107e+01
3.058331376673e+01
3.149729105370e+01
3.059857163643e+01
3.150038562383e+01
3.060099118063e+01
3.148896467699e+01
3.056528854911e+01
4.722053012726e+01
2.975682512910e+01
2.975590038301e+01
2.975007669762e+01
2.974160471396e+01
3.794775364932e+01
3.791779463272e+01
3.787077406386e+01
3.799612576574e+01
3.022013026362e+01
3.159572241316e+01
3.403977008253e+01
3.408328368707e+01
3.153360136599e+01
3.022155072011e+01
3.012480664425e+01
3.066472934136e+01
3.024820297917e+01
3.021966927023e+01
3.159158087236e+01
3.402577467530e+01
3.013066868875e+01
3.066741950342e+01
3.023551425030e+01
3.019256513943e+01
3.166213669803e+01
3.399650406701e+01
3.012476015394e+01
3.066457114993e+01
3.025240350488e+01
3.024902050174e+01
3.066577841335e+01
3.012461762833e+01
3.156894404376e+01
3.067089252534e+01
3.156217419993e+01
3.068416845159e+01
3.156486732103e+01
3.068856764756e+01
3.155357041145e+01
3.065320167046e+01
4.721462260132e+01
2.961307725486e+01
2.961252424223e+01
2.960871023943e+01
2.960410692753e+01
3.578241079877e+01
3.573992168837e+01
3.565001223037e+01
3.588574841035e+01
2.989316949713e+01
3.074449302239e+01
3.239151224856e+01
3.241268332339e+01
3.070250790555e+01
2.989497637595e+01
2.983317436058e+01
3.015581014411e+01
2.990808714000e+01
2.989301587804e+01
3.074158748720e+01
3.237854817003e+01
2.983659477428e+01
3.015762932620e+01
2.990033149681e+01
2.987444777588e+01
3.078895376244e+01
3.237024962425e+01
2.983313965832e+01
3.015570224898e+01
2.991067536365e+01
2.990861165644e+01
3.015646646416e+01
2.983319147411e+01
3.069990045160e+01
3.016508423267e+01
3.069576561058e+01
3.017226694696e+01
3.069700414921e+01
3.017627923677e+01
3.068975138708e+01
3.015442456865e+01
4.604536138922e+01
2.955369621396e+01
2.955312581522e+01
2.954991804358e+01
2.954753973089e+01
3.204583276444e+01
3.205829161133e+01
3.210964956609e+01
3.197610925331e+01
2.976033767894e+01
3.035649873345e+01
3.131846328093e+01
3.134539999840e+01
3.033171883910e+01
2.976013393763e+01
2.972180547546e+01
2.996562085080e+01
2.977655942207e+01
2.975992635069e+01
3.035480232941e+01
3.131577430765e+01
2.972425199540e+01
2.996677785494e+01
2.977098834028e+01
2.974976731056e+01
3.038285873151e+01
3.128975085817e+01
2.972148328466e+01
2.996572172498e+01
2.977813133213e+01
2.977664260907e+01
2.996607037644e+01
2.972159285859e+01
3.036513504258e+01
2.996151935568e+01
3.036237227865e+01
2.996821990684e+01
3.036435748064e+01
2.996895675192e+01
3.035942350758e+01
2.995368491235e+01
3.050725279503e+01
2.949980472430e+01
2.949911512074e+01
2.949749231828e+01
2.949555055995e+01
3.053726751242e+01
3.054941993532e+01
3.057043889013e+01
3.052037865741e+01
2.963879592456e+01
2.999634633309e+01
3.043644989105e+01
3.044904746203e+01
2.998541553790e+01
2.963830017015e+01
2.962065233754e+01
2.978675173059e+01
2.965355163525e+01
2.963842240316e+01
2.999596879660e+01
3.043891868895e+01
2.962232724922e+01
2.978745946140e+01
2.965001503351e+01
2.963332755531e+01
3.000903923307e+01
3.042878186317e+01
2.962067183111e+01
2.978721482100e+01
2.965428360644e+01
2.965337963724e+01
2.978716277425e+01
2.962069495700e+01
3.003496654900e+01
2.977157209630e+01
3.003271505545e+01
2.977740475657e+01
3.003341693981e+01
2.977591346740e+01
3.003114310610e+01
2.976674488250e+01
3.090313188553e+01
2.946270441241e+01
2.946212419540e+01
2.946168076602e+01
2.945983495345e+01
3.001701562109e+01
3.001961826066e+01
3.002372795008e+01
3.001480532723e+01
2.954813295632e+01
2.973607346821e+01
2.993471794450e+01
2.993977830679e+01
2.973102167147e+01
2.954853070851e+01
2.954349168990e+01
2.964383329268e+01
2.955881471496e+01
2.954769826979e+01
2.973615190858e+01
2.993621916574e+01
2.954430429111e+01
2.964420629957e+01
2.955684399822e+01
2.954444674997e+01
2.974269654502e+01
2.993333651464e+01
2.954326937067e+01
2.964413373819e+01
2.955910079325e+01
2.955862041167e+01
2.964399080140e+01
2.954346187449e+01
2.976882145255e+01
2.962609600948e+01
2.976769658085e+01
2.963026265254e+01
2.976846073791e+01
2.962815662101e+01
2.976709275502e+01
2.962344067185e+01
2.997343710854e+01
2.945051971906e+01
2.945006420495e+01
2.944971368389e+01
2.944922467598e+01
2.969575046339e+01
2.969713612248e+01
2.969996939404e+01
2.969321963149e+01
2.949668134163e+01
2.958444645357e+01
2.966966977489e+01
2.967203128837e+01
2.958209946089e+01
2.949719457179e+01
2.949779428609e+01
2.955111818371e+01
2.950395723447e+01
2.949632789542e+01
2.958454465171e+01
2.967027027645e+01
2.949802746268e+01
2.955135097797e+01
2.950297529873e+01
2.949452017216e+01
2.958769028487e+01
2.966883882129e+01
2.949746259517e+01
2.955137048769e+01
2.950391514158e+01
2.950369573626e+01
2.955117227498e+01
2.949776813715e+01
2.960419207310e+01
2.953705225037e+01
2.960374421006e+01
2.953958014389e+01
2.960442538181e+01
2.953794291566e+01
2.960363089861e+01
2.953582003976e+01
2.970823423915e+01
2.960761294303e+01
2.960758167421e+01
2.960748177102e+01
2.960774491833e+01
2.959585020497e+01
2.959574674101e+01
2.959548518470e+01
2.959613821634e+01
2.960654453801e+01
2.960259589831e+01
2.959753141081e+01
2.959739700040e+01
2.960267748605e+01
2.960654371998e+01
2.960710820522e+01
2.960584104640e+01
2.960672608014e+01
2.960653627496e+01
2.960260613694e+01
2.959751274716e+01
2.960706946441e+01
2.960585611804e+01
2.960676692383e+01
2.960657656829e+01