# vtk DataFile Version 3.0
Unstructured Grid from OpenGeoSys
ASCII
DATASET UNSTRUCTURED_GRID
FIELD TimesAndCycles 2
TIME 1 1 double
3.600000000000e+03
CYLCE 1 1 long
1
POINTS 1394 double
0.000000000000e+00 0.000000000000e+00 0.000000000000e+00
5.000000000000e+00 0.000000000000e+00 0.000000000000e+00
5.000000000000e+00 5.000000000000e+00 0.000000000000e+00
0.000000000000e+00 5.000000000000e+00 0.000000000000e+00
2.244234909000e+00 2.244234909000e+00 0.000000000000e+00
2.755765091000e+00 2.244234909000e+00 0.000000000000e+00
2.755765091000e+00 2.755765091000e+00 0.000000000000e+00
2.244234909000e+00 2.755765091000e+00 0.000000000000e+00
7.141316008320e-01 7.141316008320e-01 0.000000000000e+00
1.314642334730e+00 1.314642334730e+00 0.000000000000e+00
1.819609643610e+00 1.819609643610e+00 0.000000000000e+00
1.819609643610e+00 3.180390356390e+00 0.000000000000e+00
1.314642334740e+00 3.685357665260e+00 0.000000000000e+00
7.141316008360e-01 4.285868399160e+00 0.000000000000e+00
0.000000000000e+00 3.750000000000e+00 0.000000000000e+00
0.000000000000e+00 2.500000000000e+00 0.000000000000e+00
0.000000000000e+00 1.250000000000e+00 0.000000000000e+00
4.285868399170e+00 7.141316008320e-01 0.000000000000e+00
3.685357665270e+00 1.314642334730e+00 0.000000000000e+00
3.180390356390e+00 1.819609643610e+00 0.000000000000e+00
1.250000000000e+00 0.000000000000e+00 0.000000000000e+00
2.500000000000e+00 0.000000000000e+00 0.000000000000e+00
3.750000000000e+00 0.000000000000e+00 0.000000000000e+00
4.285868399170e+00 4.285868399170e+00 0.000000000000e+00
3.685357665270e+00 3.685357665270e+00 0.000000000000e+00
3.180390356390e+00 3.180390356390e+00 0.000000000000e+00
5.000000000000e+00 1.250000000000e+00 0.000000000000e+00
5.000000000000e+00 2.500000000000e+00 0.000000000000e+00
5.000000000000e+00 3.750000000000e+00 0.000000000000e+00
3.750000000000e+00 5.000000000000e+00 0.000000000000e+00
2.500000000000e+00 5.000000000000e+00 0.000000000000e+00
1.250000000000e+00 5.000000000000e+00 0.000000000000e+00
9.560744151940e-01 2.677827143250e+00 0.000000000000e+00
6.659597640160e-01 1.438876720610e+00 0.000000000000e+00
2.309219871940e+00 9.522638293400e-01 0.000000000000e+00
3.458157207860e+00 6.354750772000e-01 0.000000000000e+00
4.043925584810e+00 2.322172856750e+00 0.000000000000e+00
4.334040235980e+00 3.561123279390e+00 0.000000000000e+00
2.318530875810e+00 4.048536535600e+00 0.000000000000e+00
3.552396921680e+00 4.370927842320e+00 0.000000000000e+00
2.500000000000e+00 2.500000000000e+00 0.000000000000e+00
0.000000000000e+00 0.000000000000e+00 -5.000000000000e-01
5.000000000000e+00 0.000000000000e+00 -5.000000000000e-01
5.000000000000e+00 5.000000000000e+00 -5.000000000000e-01
0.000000000000e+00 5.000000000000e+00 -5.000000000000e-01
2.244234909000e+00 2.244234909000e+00 -5.000000000000e-01
2.755765091000e+00 2.244234909000e+00 -5.000000000000e-01
2.755765091000e+00 2.755765091000e+00 -5.000000000000e-01
2.244234909000e+00 2.755765091000e+00 -5.000000000000e-01
7.141316008320e-01 7.141316008320e-01 -5.000000000000e-01
1.314642334730e+00 1.314642334730e+00 -5.000000000000e-01
1.819609643610e+00 1.819609643610e+00 -5.000000000000e-01
1.819609643610e+00 3.180390356390e+00 -5.000000000000e-01
1.314642334740e+00 3.685357665260e+00 -5.000000000000e-01
7.141316008360e-01 4.285868399160e+00 -5.000000000000e-01
0.000000000000e+00 3.750000000000e+00 -5.000000000000e-01
0.000000000000e+00 2.500000000000e+00 -5.000000000000e-01
0.000000000000e+00 1.250000000000e+00 -5.000000000000e-01
4.285868399170e+00 7.141316008320e-01 -5.000000000000e-01
3.685357665270e+00 1.314642334730e+00 -5.000000000000e-01
3.180390356390e+00 1.819609643610e+00 -5.000000000000e-01
1.250000000000e+00 0.000000000000e+00 -5.000000000000e-01
2.500000000000e+00 0.000000000000e+00 -5.000000000000e-01
3.750000000000e+00 0.000000000000e+00 -5.000000000000e-01
4.285868399170e+00 4.285868399170e+00 -5.000000000000e-01
3.685357665270e+00 3.685357665270e+00 -5.000000000000e-01
3.180390356390e+00 3.180390356390e+00 -5.000000000000e-01
5.000000000000e+00 1.250000000000e+00 -5.000000000000e-01
5.000000000000e+00 2.500000000000e+00 -5.000000000000e-01
5.000000000000e+00 3.750000000000e+00 -5.000000000000e-01
3.750000000000e+00 5.000000000000e+00 -5.000000000000e-01
2.500000000000e+00 5.000000000000e+00 -5.000000000000e-01
1.250000000000e+00 5.000000000000e+00 -5.000000000000e-01
9.560744151940e-01 2.677827143250e+00 -5.000000000000e-01
6.659597640160e-01 1.438876720610e+00 -5.000000000000e-01
2.309219871940e+00 9.522638293400e-01 -5.000000000000e-01
3.458157207860e+00 6.354750772000e-01 -5.000000000000e-01
4.043925584810e+00 2.322172856750e+00 -5.000000000000e-01
4.334040235980e+00 3.561123279390e+00 -5.000000000000e-01
2.318530875810e+00 4.048536535600e+00 -5.000000000000e-01
3.552396921680e+00 4.370927842320e+00 -5.000000000000e-01
2.500000000000e+00 2.500000000000e+00 -5.000000000000e-01
0.000000000000e+00 0.000000000000e+00 -1.000000000000e+00
5.000000000000e+00 0.000000000000e+00 -1.000000000000e+00
5.000000000000e+00 5.000000000000e+00 -1.000000000000e+00
0.000000000000e+00 5.000000000000e+00 -1.000000000000e+00
2.244234909000e+00 2.244234909000e+00 -1.000000000000e+00
2.755765091000e+00 2.244234909000e+00 -1.000000000000e+00
2.755765091000e+00 2.755765091000e+00 -1.000000000000e+00
2.244234909000e+00 2.755765091000e+00 -1.000000000000e+00
7.141316008320e-01 7.141316008320e-01 -1.000000000000e+00
1.314642334730e+00 1.314642334730e+00 -1.000000000000e+00
1.819609643610e+00 1.819609643610e+00 -1.000000000000e+00
1.819609643610e+00 3.180390356390e+00 -1.000000000000e+00
1.314642334740e+00 3.685357665260e+00 -1.000000000000e+00
7.141316008360e-01 4.285868399160e+00 -1.000000000000e+00
0.000000000000e+00 3.750000000000e+00 -1.000000000000e+00
0.000000000000e+00 2.500000000000e+00 -1.000000000000e+00
0.000000000000e+00 1.250000000000e+00 -1.000000000000e+00
4.285868399170e+00 7.141316008320e-01 -1.000000000000e+00
3.685357665270e+00 1.314642334730e+00 -1.000000000000e+00
3.180390356390e+00 1.819609643610e+00 -1.000000000000e+00
1.250000000000e+00 0.000000000000e+00 -1.000000000000e+00
2.500000000000e+00 0.000000000000e+00 -1.000000000000e+00
3.750000000000e+00 0.000000000000e+00 -1.000000000000e+00
4.285868399170e+00 4.285868399170e+00 -1.000000000000e+00
3.685357665270e+00 3.685357665270e+00 -1.000000000000e+00
3.180390356390e+00 3.180390356390e+00 -1.000000000000e+00
5.000000000000e+00 1.250000000000e+00 -1.000000000000e+00
5.000000000000e+00 2.500000000000e+00 -1.000000000000e+00
5.000000000000e+00 3.750000000000e+00 -1.000000000000e+00
3.750000000000e+00 5.000000000000e+00 -1.000000000000e+00
2.500000000000e+00 5.000000000000e+00 -1.000000000000e+00
1.250000000000e+00 5.000000000000e+00 -1.000000000000e+00
9.560744151940e-01 2.677827143250e+00 -1.000000000000e+00
6.659597640160e-01 1.438876720610e+00 -1.000000000000e+00
2.309219871940e+00 9.522638293400e-01 -1.000000000000e+00
3.458157207860e+00 6.354750772000e-01 -1.000000000000e+00
4.043925584810e+00 2.322172856750e+00 -1.000000000000e+00
4.334040235980e+00 3.561123279390e+00 -1.000000000000e+00
2.318530875810e+00 4.048536535600e+00 -1.000000000000e+00
3.552396921680e+00 4.370927842320e+00 -1.000000000000e+00
2.500000000000e+00 2.500000000000e+00 -1.000000000000e+00
0.000000000000e+00 0.000000000000e+00 -3.000000000000e+00
5.000000000000e+00 0.000000000000e+00 -3.000000000000e+00
5.000000000000e+00 5.000000000000e+00 -3.000000000000e+00
0.000000000000e+00 5.000000000000e+00 -3.000000000000e+00
2.244234909000e+00 2.244234909000e+00 -3.000000000000e+00
2.755765091000e+00 2.244234909000e+00 -3.000000000000e+00
2.755765091000e+00 2.755765091000e+00 -3.000000000000e+00
2.244234909000e+00 2.755765091000e+00 -3.000000000000e+00
7.141316008320e-01 7.141316008320e-01 -3.000000000000e+00
1.314642334730e+00 1.314642334730e+00 -3.000000000000e+00
1.819609643610e+00 1.819609643610e+00 -3.000000000000e+00
1.819609643610e+00 3.180390356390e+00 -3.000000000000e+00
1.314642334740e+00 3.685357665260e+00 -3.000000000000e+00
7.141316008360e-01 4.285868399160e+00 -3.000000000000e+00
0.000000000000e+00 3.750000000000e+00 -3.000000000000e+00
0.000000000000e+00 2.500000000000e+00 -3.000000000000e+00
0.000000000000e+00 1.250000000000e+00 -3.000000000000e+00
4.285868399170e+00 7.141316008320e-01 -3.000000000000e+00
3.685357665270e+00 1.314642334730e+00 -3.000000000000e+00
3.180390356390e+00 1.819609643610e+00 -3.000000000000e+00
1.250000000000e+00 0.000000000000e+00 -3.000000000000e+00
2.500000000000e+00 0.000000000000e+00 -3.000000000000e+00
3.750000000000e+00 0.000000000000e+00 -3.000000000000e+00
4.285868399170e+00 4.285868399170e+00 -3.000000000000e+00
3.685357665270e+00 3.685357665270e+00 -3.000000000000e+00
3.180390356390e+00 3.180390356390e+00 -3.000000000000e+00
5.000000000000e+00 1.250000000000e+00 -3.000000000000e+00
5.000000000000e+00 2.500000000000e+00 -3.000000000000e+00
5.000000000000e+00 3.750000000000e+00 -3.000000000000e+00
3.750000000000e+00 5.000000000000e+00 -3.000000000000e+00
2.500000000000e+00 5.000000000000e+00 -3.000000000000e+00
1.250000000000e+00 5.000000000000e+00 -3.000000000000e+00
9.560744151940e-01 2.677827143250e+00 -3.000000000000e+00
6.659597640160e-01 1.438876720610e+00 -3.000000000000e+00
2.309219871940e+00 9.522638293400e-01 -3.000000000000e+00
3.458157207860e+00 6.354750772000e-01 -3.000000000000e+00
4.043925584810e+00 2.322172856750e+00 -3.000000000000e+00
4.334040235980e+00 3.561123279390e+00 -3.000000000000e+00
2.318530875810e+00 4.048536535600e+00 -3.000000000000e+00
3.552396921680e+00 4.370927842320e+00 -3.000000000000e+00
2.500000000000e+00 2.500000000000e+00 -3.000000000000e+00
0.000000000000e+00 0.000000000000e+00 -5.000000000000e+00
5.000000000000e+00 0.000000000000e+00 -5.000000000000e+00
5.000000000000e+00 5.000000000000e+00 -5.000000000000e+00
0.000000000000e+00 5.000000000000e+00 -5.000000000000e+00
2.244234909000e+00 2.244234909000e+00 -5.000000000000e+00
[...]
POINT_DATA 1394
SCALARS TEMPERATURE1 double 1
LOOKUP_TABLE default
1.000000000000e+01
1.000000000000e+01
1.000000000000e+01
1.000000000000e+01
1.000000000000e+01
1.000000000000e+01
1.000000000000e+01
1.000000000000e+01
1.000000000000e+01
1.000000000000e+01
1.000000000000e+01
1.000000000000e+01
1.000000000000e+01
1.000000000000e+01
1.000000000000e+01
1.000000000000e+01
1.000000000000e+01
1.000000000000e+01
1.000000000000e+01
1.000000000000e+01
1.000000000000e+01
1.000000000000e+01
1.000000000000e+01
1.000000000000e+01
1.000000000000e+01
1.000000000000e+01
1.000000000000e+01
1.000000000000e+01
1.000000000000e+01
1.000000000000e+01
1.000000000000e+01
1.000000000000e+01
1.000000000000e+01
1.000000000000e+01
1.000000000000e+01
1.000000000000e+01
1.000000000000e+01
1.000000000000e+01
1.000000000000e+01
1.000000000000e+01
1.000000000000e+01
1.886899091265e+01
1.886825050441e+01
1.886332300676e+01
1.886329180697e+01
2.233295340966e+01
2.232982587070e+01
2.238119381260e+01
2.224391070692e+01
1.910875827032e+01
1.985418726350e+01
2.111082675102e+01
2.114515712634e+01
1.982159669674e+01
1.910794346552e+01
1.905432218667e+01
1.934009802481e+01
1.912574796516e+01
1.910849243234e+01
1.985164134272e+01
2.110789806500e+01
1.905696878932e+01
1.934130960449e+01
1.911890707449e+01
1.909696788621e+01
1.988825021161e+01
2.107750493920e+01
1.905387148438e+01
1.934021839117e+01
1.912813137719e+01
1.912620879893e+01
1.934100328881e+01
1.905434865249e+01
1.984622108237e+01
1.934841507359e+01
1.984237537467e+01
1.935499731742e+01
1.984385309983e+01
1.935796101586e+01
1.983824920374e+01
1.933885192666e+01
2.446676260899e+01
2.815989134429e+01
2.815790583415e+01
2.814746465640e+01
2.815171125130e+01
3.421706822646e+01
3.430486886058e+01
3.442423322205e+01
3.413678109437e+01
2.861258884405e+01
2.996818670260e+01
3.243349381744e+01
3.249852116845e+01
2.990624527300e+01
2.861282569603e+01
2.853134141533e+01
2.905844709402e+01
2.865542038699e+01
2.861154208765e+01
2.996229695133e+01
3.241901809414e+01
2.853492483508e+01
2.906183398351e+01
2.864215955942e+01
2.858820973959e+01
3.003137991333e+01
3.234812730299e+01
2.852892524321e+01
2.905979041614e+01
2.865703368845e+01
2.865445535189e+01
2.906005490370e+01
2.853132460512e+01
2.992322816322e+01
2.905195556710e+01
2.991647077362e+01
2.906533762184e+01
2.992196554146e+01
2.907108738703e+01
2.991087636642e+01
2.903664020435e+01
2.774655568494e+01
3.325515992436e+01
3.325214304660e+01
3.324015983728e+01
3.324859435079e+01
3.847544436203e+01
3.855056122974e+01
3.866797195270e+01
3.839139555209e+01
3.372537628623e+01
3.507540665221e+01
3.730349871627e+01
3.736675729785e+01
3.501894262823e+01
3.372446593122e+01
3.365461654298e+01
3.420840162927e+01
3.378066088304e+01
3.372421311099e+01
3.506975804523e+01
3.729957857873e+01
3.365798098317e+01
3.421192129843e+01
3.376708924756e+01
3.370404154363e+01
3.513292807648e+01
3.723522344519e+01
3.365227457080e+01
3.421104979056e+01
3.378157847612e+01
3.377901418879e+01
3.421065108483e+01
3.365522253228e+01
3.508207015352e+01
3.417982009956e+01
3.507401001830e+01
3.419600883100e+01
3.507816760329e+01
3.419879385179e+01
3.506868178823e+01
3.416462530787e+01
3.317514623133e+01
3.625832487420e+01
3.625546066357e+01
3.624579670278e+01
3.625171240749e+01
4.113272518815e+01
4.119194801940e+01
4.128165540604e+01
4.106980317975e+01
3.668625375736e+01
3.788241912302e+01
3.985705977460e+01
3.991081423506e+01
3.783236740812e+01
3.668666629709e+01
3.662733556458e+01
3.712869702738e+01
3.673604496390e+01
3.668486722906e+01
3.787785248344e+01
3.985171881882e+01
3.663004996996e+01
3.713159207378e+01
3.672392705645e+01
3.666587738854e+01
3.793476048340e+01
3.979829323999e+01
3.662473517840e+01
3.713075324119e+01
3.673708920769e+01
3.673475462006e+01
3.713055842443e+01
3.662773413631e+01
3.789490346481e+01
3.709598900660e+01
3.788799625235e+01
3.711101483620e+01
3.789236623357e+01
3.711252086386e+01
3.788356081651e+01
3.708237719385e+01
3.762368739715e+01
3.791686395043e+01
3.791419268802e+01
3.790518675327e+01
3.791051945766e+01
4.279012292217e+01
4.283376033752e+01
4.290445274459e+01
4.273820872914e+01
3.832002838907e+01
3.945363047069e+01
4.133957671159e+01
4.138918082142e+01
3.940566459566e+01
3.832055975528e+01
3.826269087268e+01
3.873510093808e+01
3.836572497724e+01
3.831876051114e+01
3.944934192635e+01
4.133422102868e+01
3.826527216620e+01
3.873774583192e+01
3.835431257540e+01
3.830056293248e+01
3.950393577204e+01
4.128680701131e+01
3.826028885098e+01
3.873692440694e+01
3.836696126874e+01
3.836468497927e+01
3.873687231830e+01
3.826309322623e+01
3.946210271382e+01
3.870678052756e+01
3.945555323347e+01
3.872068887042e+01
3.945943908650e+01
3.872235482893e+01
3.945110222171e+01
3.869378457217e+01
4.123343966815e+01
3.880063352038e+01
3.879814239591e+01
3.878987642569e+01
3.879392349493e+01
4.395636815592e+01
4.398338335639e+01
4.403038151406e+01
4.392094318305e+01
3.919212036549e+01
4.029558243582e+01
4.216107566852e+01
4.220704902869e+01
4.024797600427e+01
3.919311372519e+01
3.913485811907e+01
3.959257515074e+01
3.923430168853e+01
3.919088544713e+01
4.029156944021e+01
4.215445331796e+01
3.913741550890e+01
3.959502649230e+01
3.922329986861e+01
3.917240707484e+01
4.034593529142e+01
4.211288434053e+01
3.913256005986e+01
3.959408231363e+01
3.923586119570e+01
3.923355968834e+01
3.959421887329e+01
3.913519818060e+01
4.029864735934e+01
3.956758120429e+01
4.029242302402e+01
3.958076280428e+01
4.029610794769e+01
3.958254186360e+01
4.028779064130e+01
3.955473883626e+01
4.511002807875e+01
3.924785076925e+01
3.924532013558e+01
3.923696657263e+01
3.924215737436e+01
4.353597658020e+01
4.358501508528e+01
4.365773295502e+01
4.348730230495e+01
3.962055932062e+01
4.066141711334e+01
4.237709943500e+01
4.242321952779e+01
4.061796652869e+01
3.962097448006e+01
3.956943994146e+01
4.000616009571e+01
3.966400110896e+01
3.961934609601e+01
4.065746638801e+01
4.237257511723e+01
3.957175855084e+01
4.000864343408e+01
3.965343607762e+01
3.960286935724e+01
4.070697618092e+01
4.232738765089e+01
3.956715397232e+01
4.000795854820e+01
3.966494327487e+01
3.966291381495e+01
4.000781734733e+01
3.956982218879e+01
4.067307250119e+01
3.997739233916e+01
4.066697804991e+01
3.999048508244e+01
4.067068171388e+01
3.999178925704e+01
4.066310728607e+01
3.996557167785e+01
4.082826896143e+01
3.961972247078e+01
3.961733535821e+01
3.960954199259e+01
3.961344196830e+01
4.435706140263e+01
4.438878407174e+01
4.443614012440e+01
4.432696903821e+01
3.998987594208e+01
4.102848088937e+01
4.277248450996e+01
4.281577313216e+01
4.098415770217e+01
3.999074260579e+01
3.993684853424e+01
4.036966609063e+01
4.003043030467e+01
3.998868935031e+01
4.102473159294e+01
4.276646775398e+01
3.993924739829e+01
4.037201015034e+01
4.002002045057e+01
3.997144028147e+01
4.107541180991e+01
4.272670990168e+01
3.993466533885e+01
4.037116239652e+01
4.003177708935e+01
4.002964741027e+01
4.037122933835e+01
3.993718160529e+01
4.103425093485e+01
4.034444525354e+01
4.102832238899e+01
4.035706805125e+01
4.103183939344e+01
4.035859853293e+01
4.102408400679e+01
4.033242913471e+01
4.457665665715e+01
3.945099397795e+01
3.944863128071e+01
3.944090107236e+01
3.944452702298e+01
4.433223630566e+01
4.435811532377e+01
4.440071956005e+01
4.430235705870e+01
3.982274128272e+01
4.086804510007e+01
4.263025579309e+01
4.267339242542e+01
4.082313705733e+01
3.982370669876e+01
3.976867491359e+01
4.020327806273e+01
3.986276065338e+01
3.982156362184e+01
4.086429422744e+01
4.262401127000e+01
3.977112043003e+01
4.020559310150e+01
3.985232714134e+01
3.980403244657e+01
4.091565142439e+01
4.258517002031e+01
3.976651357240e+01
4.020470050518e+01
3.986424259834e+01
3.986206220061e+01
4.020482937066e+01
3.976899669920e+01
4.087239869477e+01
4.017905808991e+01
4.086648151673e+01
4.019162901904e+01
4.086996093356e+01
4.019322581474e+01
4.086210095049e+01
4.016688482106e+01
4.529844680172e+01
3.917734748427e+01
3.917500371811e+01
3.916728228490e+01
3.917080088914e+01
4.411743741642e+01
4.414160160958e+01
4.418257138277e+01
4.408799302525e+01
3.954969594460e+01
4.059832679670e+01
4.237043984839e+01
4.241357038564e+01
4.055313206679e+01
3.955068303904e+01
3.949508230344e+01
3.993034086335e+01
3.958945756520e+01
3.954852825527e+01
4.059456610822e+01
4.236404450957e+01
3.949755802194e+01
3.993265552848e+01
3.957901187360e+01
3.953086633958e+01
4.064623081569e+01
4.232542389329e+01
3.949294105902e+01
3.993173622497e+01
3.959098548690e+01
3.958878605667e+01
3.993188466164e+01
3.949539770130e+01
4.060167084002e+01
3.990672324153e+01
4.059576033803e+01
3.991925829464e+01
4.059922640468e+01
3.992091479474e+01
4.059131422839e+01
3.989448406686e+01
4.534338093094e+01
3.890052275927e+01
3.889819044920e+01
3.889045528347e+01
3.889391583605e+01
4.387355234939e+01
4.389729962961e+01
4.393830981961e+01
4.384342783200e+01
3.927383601530e+01
4.032629611065e+01
4.210752555189e+01
4.215083896835e+01
4.028085148571e+01
3.927482823088e+01
3.921878921723e+01
3.965514506136e+01
3.931351373907e+01
3.927267250408e+01
4.032251780941e+01
4.210102110130e+01
3.922129011082e+01
3.965746725241e+01
3.930304235563e+01
3.925490641384e+01
4.037444588746e+01
4.206223958476e+01
3.921665608068e+01
3.965652661409e+01
3.931506532409e+01
3.931285261421e+01
3.965668414022e+01
3.921909727928e+01
4.032897551843e+01
3.963187508981e+01
4.032306568311e+01
3.964440893296e+01
4.032654495690e+01
3.964610840669e+01
4.031858094391e+01
3.961957654019e+01
4.517564303634e+01
3.866260319711e+01
3.866028015843e+01
3.865253048431e+01
3.865595753556e+01
4.365019688408e+01
4.367416314549e+01
4.371579453094e+01
4.361924863012e+01
3.903658274342e+01
4.009169622985e+01
4.187925290797e+01
4.192275679934e+01
4.004608536747e+01
3.903757228918e+01
3.898125237996e+01
3.941835873631e+01
3.907622324340e+01
3.903542161819e+01
4.008790246244e+01
4.187266467624e+01
3.898377096285e+01
3.942068964887e+01
3.906573258122e+01
3.901758830535e+01
4.014000004212e+01
4.183362395088e+01
3.897912334332e+01
3.941973291300e+01
3.907778369960e+01
3.907556426928e+01
3.941989346084e+01
3.898155346135e+01
4.009389060886e+01
3.939531298929e+01
4.008798366578e+01
3.940784810097e+01
4.009148256818e+01
3.940957960381e+01
4.008348015859e+01
3.938297718140e+01
4.493894251801e+01
3.845442609564e+01
3.845210910694e+01
3.844433992955e+01
3.844775987997e+01
4.343753437961e+01
4.346248800953e+01
4.350560380198e+01
4.340531117498e+01
3.882897509007e+01
3.988608850326e+01
4.167795363735e+01
4.172170756556e+01
3.984037523096e+01
3.882995400215e+01
3.877349297227e+01
3.921123808981e+01
3.886865338620e+01
3.882781321244e+01
3.988227865861e+01
4.167130579124e+01
3.877602261817e+01
3.921358027108e+01
3.885814413327e+01
3.880994271929e+01
3.993447400452e+01
4.163183156307e+01
3.877136135889e+01
3.921261190159e+01
3.887020738174e+01
3.886798714044e+01
3.921276907053e+01
3.877378653734e+01
3.988800249589e+01
3.918826460610e+01
3.988209927808e+01
3.920081174895e+01
3.988563095272e+01
3.920256312160e+01
3.987759807001e+01
3.917590778132e+01
4.460496881837e+01
3.820512598535e+01
3.820280455979e+01
3.819498129843e+01
3.819846407529e+01
4.315536688397e+01
4.318355166382e+01
4.322980136738e+01
4.312203378233e+01
3.858094851993e+01
3.964148529041e+01
4.143853293691e+01
4.148271861757e+01
3.959569882852e+01
3.858189068074e+01
3.852541959447e+01
3.896462451124e+01
3.862091754616e+01
3.857977909959e+01
3.963765089160e+01
4.143182478507e+01
3.852795664189e+01
3.896699527317e+01
3.861036267673e+01
3.856189019270e+01
3.968991051854e+01
4.139146884353e+01
3.852327247437e+01
3.896602102312e+01
3.862242870708e+01
3.862021698134e+01
3.896615755904e+01
3.852570728536e+01
3.964343635285e+01
3.894140284334e+01
3.963751749007e+01
3.895401204383e+01
3.964111168088e+01
3.895577872721e+01
3.963304985757e+01
3.892903395823e+01
4.396629685966e+01
3.783001368311e+01
3.782765409540e+01
3.781959448978e+01
3.782362275894e+01
4.256186777892e+01
4.260058286587e+01
4.265769013185e+01
4.252466962383e+01
3.820580473988e+01
3.926501111741e+01
4.104939039258e+01
4.109460941371e+01
3.921972065194e+01
3.820651181212e+01
3.815118013232e+01
3.859060619503e+01
3.824691171331e+01
3.820463850596e+01
3.926108747301e+01
4.104313072477e+01
3.815369464426e+01
3.859306624265e+01
3.823630592277e+01
3.818710329482e+01
3.931267411705e+01
4.100027044808e+01
3.814901676725e+01
3.859214973354e+01
3.824819179151e+01
3.824604844625e+01
3.859217160667e+01
3.815148797547e+01
3.926859632705e+01
3.856611357897e+01
3.926261104765e+01
3.857887546889e+01
3.926628471660e+01
3.858061625464e+01
3.925832336972e+01
3.855389731315e+01
4.182202072281e+01
3.772814371104e+01
3.772578938255e+01
3.771773238142e+01
3.772177040082e+01
4.239992681661e+01
4.244133531903e+01
4.250132816159e+01
4.236123732417e+01
3.810346388549e+01
3.916056404775e+01
4.093919174723e+01
4.098460093060e+01
3.911546702870e+01
3.810413805061e+01
3.804912447970e+01
3.848798948571e+01
3.814467449655e+01
3.810229147430e+01
3.915664753553e+01
4.093294928375e+01
3.805163437849e+01
3.849045975253e+01
3.813407879487e+01
3.808483197821e+01
3.920800837830e+01
4.088948430769e+01
3.804695458679e+01
3.848954412860e+01
3.814591403099e+01
3.814378711280e+01
3.848954807632e+01
3.804942295703e+01
3.916459718559e+01
3.846323253019e+01
3.915862905855e+01
3.847600890191e+01
3.916234907829e+01
3.847772389371e+01
3.915439922704e+01
3.845105683678e+01
4.138654959084e+01
3.754686198820e+01
3.754448342661e+01
3.753626078905e+01
3.754066279270e+01
4.212965911919e+01
4.217553226501e+01
4.224103716469e+01
4.208769228158e+01
3.792192433637e+01
3.897804389230e+01
4.075384927407e+01
4.079986863600e+01
3.893304945360e+01
3.792250729409e+01
3.786808259521e+01
3.830669802629e+01
3.796367498538e+01
3.792074822462e+01
3.897407490117e+01
4.074770558183e+01
3.787056364568e+01
3.830921600630e+01
3.795306769302e+01
3.790341499342e+01
3.902523633368e+01
4.070290394313e+01
3.786588590191e+01
3.830832079247e+01
3.796479975705e+01
3.796269927712e+01
3.830826454222e+01
3.786838668959e+01
3.898209300144e+01
3.828137352866e+01
3.897612633773e+01
3.829419907475e+01
3.897991377081e+01
3.829591144767e+01
3.897197597448e+01
3.826927043502e+01
4.044251909542e+01
3.710434497935e+01
3.710192368437e+01
3.709366156537e+01
3.709780448553e+01
4.161792739383e+01
4.166949151417e+01
4.173919928592e+01
4.157675355495e+01
3.748809562106e+01
3.856025288214e+01
4.034092489035e+01
4.038752024577e+01
3.851525873685e+01
3.748860109486e+01
3.743447624815e+01
3.788332969325e+01
3.753141833553e+01
3.748688514774e+01
3.855630266096e+01
4.033522429085e+01
3.743709022968e+01
3.788594128228e+01
3.752061277447e+01
3.746937764768e+01
3.860750449289e+01
4.028940321953e+01
3.743231561339e+01
3.788505135262e+01
3.753245239152e+01
3.753034687971e+01
3.788490784187e+01
3.743477347300e+01
3.856979086446e+01
3.785516552440e+01
3.856369088737e+01
3.786854586418e+01
3.856757128398e+01
3.786991472776e+01
3.855955998641e+01
3.784286188320e+01
3.930049829439e+01
3.600407614979e+01
3.600199185755e+01
3.599246215866e+01
3.599795654621e+01
4.075526592442e+01
4.081759689702e+01
4.090644700337e+01
4.069702735747e+01
3.638882313747e+01
3.752148292138e+01
3.946763889095e+01
3.952000575641e+01
3.747238343324e+01
3.638819199232e+01
3.632415182589e+01
3.677598679716e+01
3.642973931297e+01
3.638800154047e+01
3.751674170968e+01
3.946104528426e+01
3.632719463404e+01
3.677889684175e+01
3.641855694087e+01
3.637015794377e+01
3.757149583816e+01
3.940728742298e+01
3.632241932966e+01
3.677775975544e+01
3.643085791019e+01
3.642866751956e+01
3.677767523612e+01
3.632449746920e+01
3.750836694887e+01
3.676252110134e+01
3.750197172907e+01
3.677485724116e+01
3.750550178793e+01
3.677844200220e+01
3.749714932531e+01
3.674967586126e+01
3.687936630932e+01
3.397548199310e+01
3.397425342466e+01
3.396776849455e+01
3.397148480123e+01
3.864083095467e+01
3.864958232681e+01
3.864813037207e+01
3.866097749944e+01
3.422874827861e+01
3.500819681945e+01
3.653114823305e+01
3.656211793214e+01
3.496929680197e+01
3.422961536413e+01
3.418060809335e+01
3.447342548463e+01
3.425134564094e+01
3.422831298930e+01
3.500456877857e+01
3.652044554271e+01
3.418245045042e+01
3.447543670763e+01
3.424389185881e+01
3.421360441622e+01
3.504769963225e+01
3.649297900262e+01
3.417931680898e+01
3.447427161425e+01
3.425248370037e+01
3.425092499371e+01
3.447448005396e+01
3.418085050404e+01
3.496005350672e+01
3.447508414637e+01
3.495605570949e+01
3.448178465766e+01
3.495827420908e+01
3.448610853595e+01
3.495187881165e+01
3.446636125416e+01
4.177594350048e+01
3.338697816681e+01
3.338592622620e+01
3.338205414257e+01
3.338313287936e+01
3.564530313272e+01
3.566064016817e+01
3.571021168426e+01
3.558378096128e+01
3.358038066263e+01
3.413164768995e+01
3.502898095520e+01
3.505495353656e+01
3.410853392560e+01
3.358046509517e+01
3.354918390355e+01
3.377708117265e+01
3.359976404681e+01
3.357979299130e+01
3.412977266675e+01
3.502691581305e+01
3.355068331739e+01
3.377815337444e+01
3.359437164158e+01
3.357107697951e+01
3.415614847850e+01
3.500182606779e+01
3.354817570556e+01
3.377758838897e+01
3.360085006303e+01
3.359960141949e+01
3.377781111355e+01
3.354921537053e+01
3.413875045461e+01
3.376762418587e+01
3.413583291545e+01
3.377406701622e+01
3.413780710061e+01
3.377483394119e+01
3.413356744923e+01
3.376088724580e+01
3.542369496998e+01
3.280371521559e+01
3.280273092469e+01
3.280126588961e+01
3.280041700398e+01
3.382905481355e+01
3.383857149338e+01
3.385468133354e+01
3.381715439788e+01
3.293829584130e+01
3.327341579593e+01
3.368642308842e+01
3.369802216805e+01
3.326322354566e+01
3.293843039854e+01
3.292431097257e+01
3.308424311258e+01
3.295419782320e+01
3.293772085957e+01
3.327301682157e+01
3.368856283249e+01
3.292535999466e+01
3.308473845490e+01
3.295069075999e+01
3.293305974117e+01
3.328577452398e+01
3.367993463466e+01
3.292373887674e+01
3.308472794668e+01
3.295486677122e+01
3.295406956074e+01
3.308477743794e+01
3.292443156971e+01
3.331179048875e+01
3.306543311872e+01
3.330949646058e+01
3.307117293559e+01
3.331041458963e+01
3.306961490613e+01
3.330840884909e+01
3.306115170412e+01
3.393410898231e+01
3.225108802958e+01
3.225028920566e+01
3.225001574968e+01
3.224880287438e+01
3.277267222568e+01
3.277547600700e+01
3.278079338238e+01
3.276864881853e+01
3.233645229256e+01
3.251799334614e+01
3.270654564622e+01
3.271169116896e+01
3.251330771799e+01
3.233727212968e+01
3.233384518997e+01
3.243369136874e+01
3.234800228363e+01
3.233585522758e+01
3.251804304955e+01
3.270792095108e+01
3.233422987622e+01
3.243387290859e+01
3.234594176438e+01
3.233289932887e+01
3.252465000758e+01
3.270504510892e+01
3.233315524151e+01
3.243396211703e+01
3.234831665894e+01
3.234788824849e+01
3.243395148092e+01
3.233385952102e+01
3.255180793123e+01
3.241365207773e+01
3.255058334320e+01
3.241783831432e+01
3.255156665036e+01
3.241573531706e+01
3.255035420022e+01
3.241127061570e+01
3.277954716416e+01
3.174995059256e+01
3.174931983342e+01
3.174911063658e+01
3.174904090872e+01
3.199961550236e+01
3.200094816131e+01
3.200359121086e+01
3.199749718180e+01
3.179811662542e+01
3.188757380584e+01
3.197293332098e+01
3.197540532601e+01
3.188535568785e+01
3.179893120407e+01
3.180017832171e+01
3.185568730188e+01
3.180614037124e+01
3.179764327415e+01
3.188764080764e+01
3.197353053384e+01
3.180011264301e+01
3.185576738347e+01
3.180501988259e+01
3.179601966508e+01
3.189104992113e+01
3.197227034332e+01
3.179949886945e+01
3.185591631217e+01
3.180615931335e+01
3.180596565622e+01
3.185584251217e+01
3.180019882997e+01
3.190867891843e+01
3.184005131369e+01
3.190807538892e+01
3.184265032689e+01
3.190887997269e+01
3.184105759492e+01
3.190820959813e+01
3.183895277290e+01
3.200712708602e+01
3.037021989320e+01
3.037013211284e+01
3.037011938483e+01
3.037045457023e+01
3.036410438575e+01
3.036403381817e+01
3.036390196715e+01
3.036427446500e+01
3.037033628184e+01
3.036846327228e+01
3.036539773402e+01
3.036537161383e+01
3.036855870336e+01
3.037045369249e+01
3.037108352937e+01
3.037113878970e+01
3.037075562993e+01
3.037028390346e+01
3.036845705358e+01
3.036537895373e+01
3.037094208707e+01
3.037109017073e+01
3.037072852764e+01
3.037037796295e+01