 TITLE = "Profiles along polylines"
 VARIABLES = "DIST" "PRESSURE1" "TEMPERATURE1" "DENSITY1" "VISCOSITY1" "VELOCITY_X1" "VELOCITY_Y1" "VELOCITY_Z1" 
 ZONE T="TIME=0.000000000000e+00"
0.000000000000e+00 9.338500000000e+05 2.861500000000e+02 0.000000000000e+00 0.000000000000e+00 0.000000000000e+00 0.000000000000e+00 0.000000000000e+00 
1.000000000000e+00 9.436600000000e+05 2.861500000000e+02 0.000000000000e+00 0.000000000000e+00 0.000000000000e+00 0.000000000000e+00 0.000000000000e+00 
2.000000000000e+00 9.534700000000e+05 2.861500000000e+02 0.000000000000e+00 0.000000000000e+00 0.000000000000e+00 0.000000000000e+00 0.000000000000e+00 
3.000000000000e+00 9.632800000000e+05 2.861500000000e+02 0.000000000000e+00 0.000000000000e+00 0.000000000000e+00 0.000000000000e+00 0.000000000000e+00 
4.000000000000e+00 9.730900000000e+05 2.861500000000e+02 0.000000000000e+00 0.000000000000e+00 0.000000000000e+00 0.000000000000e+00 0.000000000000e+00 
5.000000000000e+00 9.829000000000e+05 2.861500000000e+02 0.000000000000e+00 0.000000000000e+00 0.000000000000e+00 0.000000000000e+00 0.000000000000e+00 
6.000000000000e+00 9.927100000000e+05 2.861500000000e+02 0.000000000000e+00 0.000000000000e+00 0.000000000000e+00 0.000000000000e+00 0.000000000000e+00 
7.000000000000e+00 1.002520000000e+06 2.861500000000e+02 0.000000000000e+00 0.000000000000e+00 0.000000000000e+00 0.000000000000e+00 0.000000000000e+00 
8.000000000000e+00 1.012330000000e+06 2.861500000000e+02 0.000000000000e+00 0.000000000000e+00 0.000000000000e+00 0.000000000000e+00 0.000000000000e+00 
9.000000000000e+00 1.022140000000e+06 2.861500000000e+02 0.000000000000e+00 0.000000000000e+00 0.000000000000e+00 0.000000000000e+00 0.000000000000e+00 
1.000000000000e+01 1.031950000000e+06 2.861500000000e+02 0.000000000000e+00 0.000000000000e+00 0.000000000000e+00 0.000000000000e+00 0.000000000000e+00 
1.100000000000e+01 1.041760000000e+06 2.861500000000e+02 0.000000000000e+00 0.000000000000e+00 0.000000000000e+00 0.000000000000e+00 0.000000000000e+00 
1.200000000000e+01 1.051570000000e+06 2.861500000000e+02 0.000000000000e+00 0.000000000000e+00 0.000000000000e+00 0.000000000000e+00 0.000000000000e+00 
1.300000000000e+01 1.061380000000e+06 2.861500000000e+02 0.000000000000e+00 0.000000000000e+00 0.000000000000e+00 0.000000000000e+00 0.000000000000e+00 
1.400000000000e+01 1.071190000000e+06 2.861500000000e+02 0.000000000000e+00 0.000000000000e+00 0.000000000000e+00 0.000000000000e+00 0.000000000000e+00 
1.500000000000e+01 1.081000000000e+06 2.861500000000e+02 0.000000000000e+00 0.000000000000e+00 0.000000000000e+00 0.000000000000e+00 0.000000000000e+00 
1.600000000000e+01 1.090810000000e+06 2.861500000000e+02 0.000000000000e+00 0.000000000000e+00 0.000000000000e+00 0.000000000000e+00 0.000000000000e+00 
1.700000000000e+01 1.100620000000e+06 2.861500000000e+02 0.000000000000e+00 0.000000000000e+00 0.000000000000e+00 0.000000000000e+00 0.000000000000e+00 
1.800000000000e+01 1.110430000000e+06 2.861500000000e+02 0.000000000000e+00 0.000000000000e+00 0.000000000000e+00 0.000000000000e+00 0.000000000000e+00 
1.900000000000e+01 1.120240000000e+06 2.861500000000e+02 0.000000000000e+00 0.000000000000e+00 0.000000000000e+00 0.000000000000e+00 0.000000000000e+00 
2.000000000000e+01 1.130050000000e+06 2.861500000000e+02 0.000000000000e+00 0.000000000000e+00 0.000000000000e+00 0.000000000000e+00 0.000000000000e+00 
 TITLE = "Profiles along polylines"
 VARIABLES = "DIST" "PRESSURE1" "TEMPERATURE1" "DENSITY1" "VISCOSITY1" "VELOCITY_X1" "VELOCITY_Y1" "VELOCITY_Z1" 
 ZONE T="TIME=6.048000000000e+05"
0.000000000000e+00 9.339111045744e+05 2.861500000000e+02 9.993771086134e+02 1.000000000000e-03 1.186620998584e-14 -7.191913847136e-14 2.310653855329e-13 
1.000000000000e+00 9.437149940258e+05 2.861500000000e+02 9.993771086134e+02 1.000000000000e-03 1.741712235586e-15 4.006024733021e-14 4.037056432919e-13 
2.000000000000e+00 9.535188835009e+05 2.861500000000e+02 9.993771086134e+02 1.000000000000e-03 3.359664509951e-16 -2.725901830443e-14 7.297438227581e-13 
3.000000000000e+00 9.633227729971e+05 2.861500000000e+02 9.993771086134e+02 1.000000000000e-03 -5.070560886797e-14 2.361452631942e-14 1.022022561519e-12 
4.000000000000e+00 9.731266625124e+05 2.861500000000e+02 9.993771086134e+02 1.000000000000e-03 -2.146107929683e-14 -1.503994908841e-14 1.272937676927e-12 
5.000000000000e+00 9.829305520431e+05 2.861500000000e+02 9.993771086134e+02 1.000000000000e-03 -1.255376232498e-14 -1.069170596210e-13 1.490253093675e-12 
6.000000000000e+00 9.927344415883e+05 2.861500000000e+02 9.993771086134e+02 1.000000000000e-03 9.544781197155e-15 -3.854349344704e-14 1.672464362373e-12 
7.000000000000e+00 1.002538331144e+06 2.861500000000e+02 9.993771086134e+02 1.000000000000e-03 3.105196843556e-14 3.941010622401e-14 1.797455643887e-12 
8.000000000000e+00 1.012342220706e+06 2.861500000000e+02 9.993771086134e+02 1.000000000000e-03 2.626597679838e-14 3.802330868982e-14 1.871150886553e-12 
9.000000000000e+00 1.022146110272e+06 2.861500000000e+02 9.993771086134e+02 1.000000000000e-03 6.455245426198e-15 1.240044366284e-14 1.909643150966e-12 
1.000000000000e+01 1.031949999840e+06 2.861500000000e+02 9.993771086134e+02 1.000000000000e-03 -1.333504670030e-14 -9.917665243158e-15 1.923590890143e-12 
1.100000000000e+01 1.041753889408e+06 2.861500000000e+02 9.993771086134e+02 1.000000000000e-03 -1.528980303625e-14 -1.126286507630e-14 1.912211828046e-12 
1.200000000000e+01 1.051557778974e+06 2.861500000000e+02 9.993771086134e+02 1.000000000000e-03 -9.905264434356e-15 -5.400488956302e-15 1.869497362046e-12 
1.300000000000e+01 1.061361668536e+06 2.861500000000e+02 9.993771086134e+02 1.000000000000e-03 1.837393298316e-15 -3.010142333573e-15 1.787009973867e-12 
1.400000000000e+01 1.071165558090e+06 2.861500000000e+02 9.993771086134e+02 1.000000000000e-03 2.864180127859e-14 1.837950712498e-14 1.658957866534e-12 
1.500000000000e+01 1.080969447635e+06 2.861500000000e+02 9.993771086134e+02 1.000000000000e-03 -2.072398394509e-14 1.125089178854e-14 1.488611583748e-12 
1.600000000000e+01 1.090773337166e+06 2.861500000000e+02 9.993771086134e+02 1.000000000000e-03 -2.430565007293e-14 1.520393042076e-14 1.270354014356e-12 
1.700000000000e+01 1.100577226680e+06 2.861500000000e+02 9.993771086134e+02 1.000000000000e-03 -1.793327867766e-14 -4.715135689442e-14 1.015844198814e-12 
1.800000000000e+01 1.110381116177e+06 2.861500000000e+02 9.993771086134e+02 1.000000000000e-03 -1.709295632692e-14 3.949467765240e-16 7.328163011859e-13 
1.900000000000e+01 1.120185005652e+06 2.861500000000e+02 9.993771086134e+02 1.000000000000e-03 -8.368981249462e-15 3.152831683454e-14 3.991775995151e-13 
2.000000000000e+01 1.129988895102e+06 2.861500000000e+02 9.993771086134e+02 1.000000000000e-03 -2.618663720101e-14 6.056617760108e-14 2.177731749247e-13 
