 TITLE = "Time curves in points"
 VARIABLES = "TIME "  "TEMPERATURE1" 
 ZONE T="POINT=POINTTWW"
0.000000000000e+00 2.861500000000e+02 
6.048000000000e+05 2.861500000000e+02 
