 TITLE = "Profiles along polylines"
 VARIABLES = "DIST" "PRESSURE1" "TEMPERATURE1" "DENSITY1" "VELOCITY_X1" "VELOCITY_Y1" "VELOCITY_Z1" 
 ZONE T="TIME=0.000000000000e+00"
0.000000000000e+00 9.338500000000e+05 2.861500000000e+02 0.000000000000e+00 0.000000000000e+00 0.000000000000e+00 0.000000000000e+00 
1.000000000000e+00 9.436600000000e+05 2.861500000000e+02 0.000000000000e+00 0.000000000000e+00 0.000000000000e+00 0.000000000000e+00 
2.000000000000e+00 9.534700000000e+05 2.861500000000e+02 0.000000000000e+00 0.000000000000e+00 0.000000000000e+00 0.000000000000e+00 
3.000000000000e+00 9.632800000000e+05 2.861500000000e+02 0.000000000000e+00 0.000000000000e+00 0.000000000000e+00 0.000000000000e+00 
4.000000000000e+00 9.730900000000e+05 2.861500000000e+02 0.000000000000e+00 0.000000000000e+00 0.000000000000e+00 0.000000000000e+00 
5.000000000000e+00 9.829000000000e+05 2.861500000000e+02 0.000000000000e+00 0.000000000000e+00 0.000000000000e+00 0.000000000000e+00 
6.000000000000e+00 9.927100000000e+05 2.861500000000e+02 0.000000000000e+00 0.000000000000e+00 0.000000000000e+00 0.000000000000e+00 
7.000000000000e+00 1.002520000000e+06 2.861500000000e+02 0.000000000000e+00 0.000000000000e+00 0.000000000000e+00 0.000000000000e+00 
8.000000000000e+00 1.012330000000e+06 2.861500000000e+02 0.000000000000e+00 0.000000000000e+00 0.000000000000e+00 0.000000000000e+00 
9.000000000000e+00 1.022140000000e+06 2.861500000000e+02 0.000000000000e+00 0.000000000000e+00 0.000000000000e+00 0.000000000000e+00 
1.000000000000e+01 1.031950000000e+06 2.861500000000e+02 0.000000000000e+00 0.000000000000e+00 0.000000000000e+00 0.000000000000e+00 
1.100000000000e+01 1.041760000000e+06 2.861500000000e+02 0.000000000000e+00 0.000000000000e+00 0.000000000000e+00 0.000000000000e+00 
1.200000000000e+01 1.051570000000e+06 2.861500000000e+02 0.000000000000e+00 0.000000000000e+00 0.000000000000e+00 0.000000000000e+00 
1.300000000000e+01 1.061380000000e+06 2.861500000000e+02 0.000000000000e+00 0.000000000000e+00 0.000000000000e+00 0.000000000000e+00 
1.400000000000e+01 1.071190000000e+06 2.861500000000e+02 0.000000000000e+00 0.000000000000e+00 0.000000000000e+00 0.000000000000e+00 
1.500000000000e+01 1.081000000000e+06 2.861500000000e+02 0.000000000000e+00 0.000000000000e+00 0.000000000000e+00 0.000000000000e+00 
1.600000000000e+01 1.090810000000e+06 2.861500000000e+02 0.000000000000e+00 0.000000000000e+00 0.000000000000e+00 0.000000000000e+00 
1.700000000000e+01 1.100620000000e+06 2.861500000000e+02 0.000000000000e+00 0.000000000000e+00 0.000000000000e+00 0.000000000000e+00 
1.800000000000e+01 1.110430000000e+06 2.861500000000e+02 0.000000000000e+00 0.000000000000e+00 0.000000000000e+00 0.000000000000e+00 
1.900000000000e+01 1.120240000000e+06 2.861500000000e+02 0.000000000000e+00 0.000000000000e+00 0.000000000000e+00 0.000000000000e+00 
2.000000000000e+01 1.130050000000e+06 2.861500000000e+02 0.000000000000e+00 0.000000000000e+00 0.000000000000e+00 0.000000000000e+00 
 TITLE = "Profiles along polylines"
 VARIABLES = "DIST" "PRESSURE1" "TEMPERATURE1" "DENSITY1" "VELOCITY_X1" "VELOCITY_Y1" "VELOCITY_Z1" 
 ZONE T="TIME=6.048000000000e+05"
0.000000000000e+00 9.339111045658e+05 2.861500000000e+02 9.993771086134e+02 3.814396432592e-14 1.069429623148e-14 2.286985143514e-13 
1.000000000000e+00 9.437149940170e+05 2.861500000000e+02 9.993771086134e+02 -2.865674207409e-14 -1.877332735774e-14 3.980997528469e-13 
2.000000000000e+00 9.535188834915e+05 2.861500000000e+02 9.993771086134e+02 3.245358022024e-14 -7.845800973160e-14 7.227996609285e-13 
3.000000000000e+00 9.633227729873e+05 2.861500000000e+02 9.993771086134e+02 1.617583606524e-14 -2.539178395836e-14 1.028490483680e-12 
4.000000000000e+00 9.731266625039e+05 2.861500000000e+02 9.993771086134e+02 -3.416951277582e-14 -1.289629185754e-14 1.309500630635e-12 
5.000000000000e+00 9.829305520383e+05 2.861500000000e+02 9.993771086134e+02 -1.603872338394e-14 6.831000826398e-14 1.530320271869e-12 
6.000000000000e+00 9.927344415852e+05 2.861500000000e+02 9.993771086134e+02 -2.843882884472e-14 6.951698724985e-14 1.684839867139e-12 
7.000000000000e+00 1.002538331141e+06 2.861500000000e+02 9.993771086134e+02 4.237202574937e-15 5.025040402604e-14 1.788025403673e-12 
8.000000000000e+00 1.012342220702e+06 2.861500000000e+02 9.993771086134e+02 1.439784597009e-14 1.981840868118e-14 1.854584298031e-12 
9.000000000000e+00 1.022146110267e+06 2.861500000000e+02 9.993771086134e+02 -7.904605593419e-15 9.714472553556e-15 1.897844783001e-12 
1.000000000000e+01 1.031949999834e+06 2.861500000000e+02 9.993771086134e+02 -1.697799245631e-14 -2.023618693632e-15 1.914789894907e-12 
1.100000000000e+01 1.041753889401e+06 2.861500000000e+02 9.993771086134e+02 -2.937334304592e-14 -2.053845810445e-14 1.900991718683e-12 
1.200000000000e+01 1.051557778966e+06 2.861500000000e+02 9.993771086134e+02 -3.504617678804e-14 -4.519519330754e-14 1.855345631966e-12 
1.300000000000e+01 1.061361668527e+06 2.861500000000e+02 9.993771086134e+02 -3.338837621370e-15 -5.578841907453e-14 1.781181307212e-12 
1.400000000000e+01 1.071165558082e+06 2.861500000000e+02 9.993771086134e+02 2.397814687567e-14 -4.123632352307e-14 1.667143961712e-12 
1.500000000000e+01 1.080969447627e+06 2.861500000000e+02 9.993771086134e+02 4.667509746224e-14 2.068057481919e-14 1.507583712704e-12 
1.600000000000e+01 1.090773337160e+06 2.861500000000e+02 9.993771086134e+02 -1.170713406453e-15 -8.111818708265e-15 1.299182454676e-12 
1.700000000000e+01 1.100577226677e+06 2.861500000000e+02 9.993771086134e+02 -5.800663580635e-14 1.741455628663e-14 1.025525162589e-12 
1.800000000000e+01 1.110381116172e+06 2.861500000000e+02 9.993771086134e+02 -8.873704680432e-15 2.180848684121e-14 7.211448258027e-13 
1.900000000000e+01 1.120185005647e+06 2.861500000000e+02 9.993771086134e+02 -1.625574302252e-14 -1.156009518085e-14 3.993026838019e-13 
2.000000000000e+01 1.129988895098e+06 2.861500000000e+02 9.993771086134e+02 2.751537417719e-14 9.023184332464e-15 2.273805882457e-13 
