 TITLE = "Time curves in points"
 VARIABLES = "TIME "  "TEMPERATURE1" 
 ZONE T="POINT=POINTPNT_COLD_2"
0.000000000000e+00 3.164432727136e+02 
8.640000000000e+04 3.177365231317e+02 
