 TITLE = "Time curves in points"
 VARIABLES = "TIME "  "TEMPERATURE1" 
 ZONE T="POINT=POINTPNT_WARM_2"
0.000000000000e+00 3.309753938811e+02 
8.640000000000e+04 3.307836137704e+02 
