 TITLE = "Time curves in points"
 VARIABLES = "TIME "  "TEMPERATURE1" 
 ZONE T="POINT=POINTPNT_COLD_0"
0.000000000000e+00 3.047856827332e+02 
8.640000000000e+04 3.068041237652e+02 
