TITLE = "Contraflow instance 0"
VARIABLES = "Depth" "T_s" "T_in" "T_out" "flux_1" "flux2"
ZONE T="TIME=3.600000000000e+03"
0.000000000000e+00	5.079660519073e+01	6.699999999998e+01	4.798550813470e+01	8.045195454047e+01	-1.395746108907e+01
2.000000000000e+00	5.069600220467e+01	6.628625075219e+01	4.776088804656e+01	3.096304156471e+02	-5.829288827401e+01
4.000000000000e+00	5.033761464555e+01	6.559321675271e+01	4.753957060164e+01	3.029841639142e+02	-5.557060477095e+01
6.000000000000e+00	4.998839606363e+01	6.491551037850e+01	4.732632684283e+01	2.964602261238e+02	-5.287007431621e+01
8.000000000000e+00	4.964296846167e+01	6.425276282471e+01	4.712117254018e+01	2.901580874326e+02	-5.008417389665e+01
1.000000000000e+01	4.951594863722e+01	6.263326976148e+01	4.818255266032e+01	5.210335909016e+02	-5.296387024117e+01
2.000000000000e+01	4.812137159805e+01	5.989001299810e+01	4.759558328530e+01	1.168656585939e+03	-5.221214187916e+01
3.000000000000e+01	4.703086212093e+01	5.746255544180e+01	4.721634770454e+01	1.035894177375e+03	1.841919908217e+01
4.000000000000e+01	4.613144499057e+01	5.533630805038e+01	4.703284529486e+01	9.140667534891e+02	8.951138592490e+01
5.000000000000e+01	4.541730649378e+01	5.348932246198e+01	4.704326442021e+01	8.015721018572e+02	1.614618352781e+02
6.000000000000e+01	4.488067894918e+01	5.190278607004e+01	4.724749367195e+01	6.973134327922e+02	2.350308348637e+02
7.000000000000e+01	4.451577938124e+01	5.056046112890e+01	4.764743397095e+01	6.002525605273e+02	3.109814155044e+02
8.000000000000e+01	4.431849927331e+01	4.944854534853e+01	4.824701761311e+01	5.094268682497e+02	3.901120507225e+02
9.000000000000e+01	4.429051706827e+01	4.855587790488e+01	4.905182871670e+01	1.694245533930e+02	1.891242336815e+02
9.200000000000e+01	4.430643745700e+01	4.840243572942e+01	4.923856847352e+01	8.134864840114e+01	9.795467801661e+01
9.400000000000e+01	4.432574795968e+01	4.825738018094e+01	4.943393438511e+01	7.808425344409e+01	1.014512296766e+02
9.600000000000e+01	4.435416146392e+01	4.812063458943e+01	4.963801933454e+01	7.480410821019e+01	1.049401556180e+02
9.800000000000e+01	4.441542121680e+01	4.799266830301e+01	4.985035088345e+01	7.104598100534e+01	1.079405197786e+02
1.000000000000e+02	4.338669776798e+01	4.882905854620e+01	4.882905854620e+01	1.080881055056e+02	1.080881055056e+02
