 TITLE = "Time curves in points"
 VARIABLES = "TIME "  "TEMPERATURE1" 
 ZONE T="POINT=POINTPNT_WARM_0"
0.000000000000e+00 3.303028076403e+02 
8.640000000000e+04 3.292617789611e+02 
