 TITLE = "Time curves in points"
 VARIABLES = "TIME "  "TEMPERATURE1" 
 ZONE T="POINT=POINTPNT_WARM_0"
0.000000000000e+00 3.278238276716e+02 
8.640000000000e+04 3.272657304185e+02 
