 TITLE = "Time curves in points"
 VARIABLES = "TIME "  "TEMPERATURE1" 
 ZONE T="POINT=POINTPNT_COLD_0"
0.000000000000e+00 2.861500000000e+02 
8.640000000000e+04 2.861500000000e+02 
